ITEM: TIMESTEP
0
ITEM: NUMBER OF ATOMS
712
ITEM: BOX BOUNDS pp pp pp
-1.0000000000000000e+02 1.0000000000000000e+02
-1.0000000000000000e+02 1.0000000000000000e+02
-1.0000000000000000e+02 1.0000000000000000e+02
ITEM: ATOMS id type xs ys zs
24 1 0.477547 0.495282 0.363797
2 1 0.479131 0.488563 0.365114
3 1 0.478994 0.486177 0.371714
5 1 0.482203 0.480079 0.373432
4 1 0.481611 0.484483 0.359994
6 1 0.484986 0.478571 0.361671
8 1 0.485949 0.47668 0.368392
9 1 0.491386 0.472244 0.369669
11 1 0.494819 0.469389 0.364242
22 1 0.476597 0.499792 0.369135
126 1 0.473418 0.496961 0.413987
78 1 0.47256 0.493849 0.401858
129 1 0.473819 0.492256 0.408574
110 1 0.477039 0.486143 0.409577
80 1 0.47419 0.492614 0.389873
55 1 0.474639 0.489855 0.396413
56 1 0.478418 0.483889 0.397687
111 1 0.479909 0.482294 0.404456
113 1 0.4853 0.477956 0.406164
114 1 0.487412 0.476718 0.412884
115 1 0.493955 0.474343 0.413901
23 1 0.475826 0.497367 0.375709
1 1 0.476501 0.490459 0.376669
57 1 0.479484 0.48076 0.385787
58 1 0.481511 0.480028 0.392537
59 1 0.487277 0.476257 0.394206
60 1 0.48943 0.475719 0.400866
63 1 0.496161 0.473933 0.402079
116 1 0.498527 0.473674 0.408656
7 1 0.482383 0.477749 0.380112
61 1 0.491601 0.473991 0.389159
64 1 0.498502 0.473369 0.39013
10 1 0.494254 0.471846 0.376104
62 2 0.491297 0.494584 0.384432
76 1 0.47468 0.499454 0.388002
240 1 0.472051 0.491648 0.446586
216 1 0.474034 0.490669 0.453274
218 1 0.478219 0.485149 0.454723
160 1 0.472701 0.488892 0.434788
161 1 0.47457 0.487618 0.441407
163 1 0.47969 0.483026 0.442745
220 1 0.481579 0.481881 0.449458
222 1 0.487484 0.478331 0.450896
223 1 0.489679 0.477581 0.457575
127 1 0.473405 0.494846 0.420816
109 1 0.474451 0.488104 0.422797
162 1 0.47589 0.485777 0.429337
164 1 0.481254 0.48121 0.430592
165 1 0.483233 0.480104 0.437371
167 1 0.489352 0.476912 0.438891
169 1 0.491629 0.476427 0.44554
225 1 0.49841 0.475048 0.446789
112 1 0.483474 0.478447 0.418545
166 1 0.48519 0.478229 0.425416
168 1 0.491348 0.475372 0.427133
170 1 0.493671 0.475095 0.433683
132 2 0.491465 0.492875 0.41852
186 2 0.490888 0.495063 0.442889
182 1 0.473444 0.499717 0.425863
333 2 0.491089 0.495332 0.492048
295 2 0.48974 0.495156 0.474997
326 1 0.480383 0.482723 0.498901
292 1 0.472863 0.495576 0.477119
291 1 0.472896 0.497887 0.47046
238 1 0.473007 0.495518 0.458412
241 1 0.47364 0.493396 0.465096
217 1 0.476379 0.487089 0.466439
219 1 0.479785 0.483549 0.461403
221 1 0.485438 0.479494 0.462916
276 1 0.487528 0.478145 0.469572
278 1 0.49416 0.476158 0.47088
272 1 0.476974 0.485891 0.48576
224 1 0.496389 0.47569 0.458858
226 1 0.498651 0.475432 0.465565
273 1 0.481754 0.480903 0.487009
328 1 0.483772 0.479627 0.493601
349 1 0.474012 0.497304 0.48937
279 1 0.496527 0.475457 0.477514
332 1 0.494337 0.475394 0.489509
277 1 0.492055 0.4761 0.482896
275 1 0.485523 0.478378 0.481659
274 1 0.483351 0.47935 0.47508
330 1 0.489916 0.476439 0.494871
322 1 0.475247 0.490433 0.490858
324 1 0.476444 0.488434 0.497529
290 1 0.473541 0.49983 0.48272
393 1 0.489992 0.476164 0.51349
447 1 0.49593 0.473117 0.533476
445 1 0.491925 0.474816 0.538993
443 1 0.485645 0.477696 0.537624
390 1 0.483768 0.479249 0.530893
388 1 0.478886 0.484204 0.529349
329 1 0.487867 0.47719 0.506839
439 1 0.476226 0.488267 0.534374
461 1 0.474796 0.495053 0.533372
407 1 0.474707 0.497385 0.526747
409 1 0.474897 0.495112 0.514796
411 1 0.475357 0.492814 0.521429
387 1 0.477856 0.486338 0.522741
352 1 0.475119 0.492833 0.502824
323 1 0.475922 0.490648 0.509473
325 1 0.479144 0.484534 0.510822
389 1 0.480626 0.482702 0.517445
391 1 0.485886 0.478234 0.518823
392 1 0.487779 0.476952 0.525497
394 1 0.494161 0.474213 0.526771
334 1 0.498965 0.474529 0.502779
331 1 0.492134 0.475602 0.501489
396 1 0.498965 0.473825 0.521491
395 1 0.496686 0.474359 0.514812
327 1 0.482155 0.481106 0.505514
458 1 0.474648 0.499572 0.538843
348 1 0.474422 0.499694 0.501422
338 2 0.494059 0.493226 0.509674
413 2 0.492551 0.494331 0.534353
446 1 0.494341 0.474381 0.545723
504 1 0.499051 0.474293 0.55918
502 1 0.492242 0.475466 0.557809
444 1 0.490008 0.475987 0.551125
442 1 0.483778 0.479056 0.549834
441 1 0.481748 0.47963 0.543136
560 1 0.499227 0.47464 0.577811
503 1 0.496881 0.474748 0.571162
501 1 0.490216 0.476561 0.569811
500 1 0.488045 0.477373 0.563138
498 1 0.482361 0.481316 0.561766
496 1 0.480472 0.482614 0.555072
440 1 0.476527 0.488436 0.553853
438 1 0.475147 0.490664 0.547361
459 1 0.474597 0.497441 0.545622
558 1 0.494714 0.475346 0.58315
556 1 0.488258 0.477798 0.581808
499 1 0.486245 0.478852 0.575146
497 1 0.481055 0.483379 0.573781
495 1 0.479497 0.484965 0.567095
494 1 0.476246 0.491051 0.56572
520 1 0.475402 0.493036 0.55905
552 1 0.478458 0.487237 0.57907
575 1 0.475651 0.493511 0.577637
518 1 0.475056 0.49563 0.570934
572 1 0.474456 0.498038 0.582876
522 2 0.4935 0.495242 0.570986
463 2 0.494275 0.492437 0.553062
516 1 0.474698 0.499904 0.55754
559 1 0.496989 0.474952 0.5898
610 1 0.49464 0.475096 0.60173
557 1 0.49248 0.475904 0.59509
555 1 0.486299 0.479058 0.593773
554 1 0.484482 0.480445 0.587123
553 1 0.479754 0.485478 0.585764
611 1 0.499891 0.474054 0.615466
609 1 0.489917 0.476323 0.60675
608 1 0.484262 0.480334 0.605741
606 1 0.482702 0.482005 0.599084
604 1 0.478438 0.487437 0.597747
551 1 0.477344 0.489473 0.591063
573 1 0.474868 0.495954 0.589673
663 1 0.487459 0.477387 0.619802
607 1 0.48239 0.481906 0.618039
605 1 0.481047 0.483523 0.611227
603 1 0.47727 0.489339 0.609827
602 1 0.476337 0.491459 0.603141
624 1 0.474421 0.498096 0.601808
660 1 0.47943 0.485523 0.623299
658 1 0.476111 0.491548 0.621837
626 1 0.47543 0.493631 0.615133
627 2 0.497436 0.491989 0.5969
688 2 0.492172 0.497845 0.621658
668 1 0.499398 0.476024 0.634028
667 1 0.497 0.475558 0.627398
665 1 0.490074 0.476876 0.626279
666 1 0.494982 0.47689 0.639415
664 1 0.488349 0.478765 0.638168
662 1 0.486109 0.479383 0.631538
661 1 0.480786 0.483783 0.630029
659 1 0.477985 0.487596 0.635227
686 1 0.475232 0.493875 0.633794
683 1 0.474672 0.496001 0.627111
681 1 0.47417 0.498396 0.639049
44 1 0.499365 0.527463 0.368906
42 1 0.492554 0.526373 0.370347
40 1 0.488217 0.524242 0.365141
39 1 0.483007 0.519501 0.365896
38 1 0.480861 0.517368 0.372213
36 1 0.478323 0.510942 0.373542
37 1 0.481295 0.515503 0.360396
34 1 0.478564 0.509108 0.361481
25 1 0.477493 0.506663 0.368017
43 2 0.494202 0.507128 0.373622
149 1 0.499653 0.525835 0.406413
148 1 0.497345 0.525196 0.413029
147 1 0.490893 0.522702 0.414296
98 1 0.497411 0.525716 0.394328
97 1 0.495226 0.524831 0.401004
94 1 0.488993 0.521779 0.402292
145 1 0.487063 0.520344 0.408905
143 1 0.481879 0.515758 0.410147
96 1 0.495151 0.526139 0.382385
95 1 0.492962 0.524649 0.388986
93 1 0.486946 0.521109 0.390369
92 1 0.485239 0.519223 0.396929
90 1 0.480471 0.514096 0.398058
141 1 0.479019 0.512245 0.404773
130 1 0.475327 0.506464 0.406306
128 1 0.47452 0.503945 0.412791
41 1 0.490629 0.525944 0.377039
91 1 0.483311 0.518213 0.385153
89 1 0.479281 0.512551 0.385871
88 1 0.478106 0.510407 0.392433
79 1 0.475369 0.504051 0.393199
35 1 0.477425 0.508585 0.380222
77 1 0.475603 0.501766 0.3813
131 2 0.491745 0.500949 0.402498
243 2 0.491014 0.502343 0.458235
185 2 0.493101 0.505163 0.42981
259 1 0.496751 0.525085 0.450609
258 1 0.494423 0.524455 0.457202
204 1 0.494692 0.524536 0.438305
203 1 0.492558 0.523701 0.445036
255 1 0.486408 0.520429 0.446269
254 1 0.484264 0.519366 0.452923
252 1 0.479052 0.514782 0.454219
205 1 0.499433 0.525707 0.424994
202 1 0.492784 0.523667 0.426298
201 1 0.490578 0.522621 0.43294
200 1 0.484709 0.518943 0.434225
199 1 0.48281 0.517544 0.440892
197 1 0.477725 0.512783 0.442185
250 1 0.476345 0.51105 0.448931
239 1 0.473246 0.504966 0.450604
237 1 0.472846 0.502532 0.457179
146 1 0.488788 0.521538 0.420916
144 1 0.483237 0.517393 0.422179
198 1 0.481376 0.515879 0.428822
196 1 0.476765 0.510707 0.43009
195 1 0.474655 0.509445 0.436723
183 1 0.469127 0.505217 0.437726
142 1 0.480175 0.514049 0.416779
140 1 0.476296 0.508293 0.41807
184 1 0.475067 0.506428 0.424701
306 1 0.487635 0.522475 0.47731
353 2 0.499998 0.509134 0.495195
308 1 0.491961 0.524104 0.482613
367 1 0.482253 0.51844 0.497442
365 1 0.478114 0.512874 0.498747
260 1 0.498854 0.52524 0.462639
310 1 0.496445 0.524947 0.469262
307 1 0.4897 0.523211 0.470528
257 1 0.487981 0.521965 0.458356
256 1 0.485744 0.521132 0.464978
253 1 0.480045 0.51718 0.465927
251 1 0.477235 0.513245 0.460873
242 1 0.474039 0.50707 0.462494
293 1 0.473318 0.50477 0.469199
368 1 0.483817 0.52 0.490774
373 1 0.494171 0.525032 0.494548
309 2 0.499473 0.508846 0.471364
294 1 0.474395 0.506733 0.481474
302 1 0.473954 0.508977 0.474803
371 1 0.489777 0.52348 0.489291
311 1 0.498768 0.525224 0.481278
350 1 0.474428 0.501954 0.49472
363 1 0.476003 0.508734 0.493399
303 1 0.476507 0.511046 0.486734
304 1 0.4802 0.51703 0.48553
305 1 0.481682 0.519188 0.479027
364 1 0.47719 0.510812 0.505418
351 1 0.475044 0.504257 0.506764
462 1 0.475786 0.506414 0.537458
419 1 0.476471 0.508637 0.530794
421 1 0.479575 0.514814 0.529447
474 1 0.480895 0.516736 0.541375
475 1 0.482451 0.518432 0.534742
478 1 0.487856 0.522758 0.533429
480 1 0.492041 0.524574 0.538806
482 1 0.49887 0.525702 0.537574
408 1 0.474763 0.502016 0.513445
428 1 0.499165 0.526403 0.51917
426 1 0.496572 0.525966 0.525641
425 1 0.489798 0.524052 0.526773
374 1 0.496594 0.526035 0.50621
410 1 0.4752 0.504269 0.52543
424 1 0.48652 0.523714 0.514844
423 1 0.485456 0.521918 0.521533
422 1 0.480803 0.51678 0.522811
372 1 0.491895 0.524767 0.501179
370 1 0.485712 0.521608 0.502728
369 1 0.483646 0.520333 0.509398
366 1 0.479413 0.514871 0.510742
420 1 0.478239 0.512958 0.517442
412 1 0.475674 0.506535 0.518775
427 2 0.494271 0.507774 0.518945
460 1 0.474904 0.50211 0.550851
472 1 0.476417 0.508819 0.549419
473 1 0.477319 0.510825 0.54274
517 1 0.474508 0.502515 0.569427
519 1 0.475013 0.50461 0.562754
530 1 0.476938 0.511218 0.561357
531 1 0.478105 0.513175 0.554683
476 1 0.48208 0.518837 0.553291
477 1 0.483956 0.520187 0.546679
479 1 0.48982 0.523845 0.54544
574 1 0.473765 0.504799 0.581118
521 1 0.474671 0.50726 0.574625
532 1 0.477161 0.513852 0.573425
533 1 0.478672 0.515528 0.566649
534 1 0.482638 0.521098 0.564991
535 1 0.485215 0.522242 0.558574
536 1 0.491672 0.525102 0.557497
481 1 0.494088 0.525326 0.550851
583 1 0.479377 0.517981 0.578866
585 1 0.484938 0.522129 0.577975
537 1 0.494234 0.526764 0.569487
538 1 0.4963 0.526192 0.562811
587 1 0.489199 0.524168 0.583134
589 1 0.496016 0.525575 0.581665
539 1 0.498517 0.525974 0.575006
523 2 0.496665 0.50909 0.5538
628 2 0.494653 0.507574 0.606697
571 1 0.474031 0.500381 0.595165
576 1 0.47393 0.507313 0.594157
582 1 0.47737 0.517116 0.585531
625 1 0.474062 0.502721 0.607123
636 1 0.475066 0.50959 0.605807
637 1 0.475605 0.511861 0.599189
640 1 0.479442 0.517661 0.597682
584 1 0.481032 0.519593 0.591023
586 1 0.487055 0.523075 0.589754
684 1 0.474188 0.505071 0.619058
638 1 0.475976 0.511741 0.617714
639 1 0.476992 0.513782 0.611078
641 1 0.48129 0.519168 0.609693
642 1 0.483019 0.520607 0.603013
644 1 0.489173 0.52378 0.601699
588 1 0.491416 0.524443 0.595067
591 1 0.498284 0.525199 0.593714
693 1 0.478152 0.515816 0.623011
695 1 0.483022 0.520748 0.621698
643 1 0.484971 0.521931 0.615024
645 1 0.491348 0.524557 0.613686
646 1 0.493623 0.52491 0.607032
700 1 0.495849 0.525297 0.619037
590 2 0.493349 0.506884 0.58666
623 1 0.474131 0.500425 0.613767
701 1 0.498201 0.525445 0.630922
698 1 0.486936 0.525931 0.639217
699 1 0.493487 0.525303 0.625702
697 1 0.486801 0.523353 0.627071
682 1 0.47395 0.502863 0.625727
685 1 0.473867 0.505264 0.637663
687 1 0.474335 0.507509 0.631017
692 1 0.476732 0.513984 0.629647
694 1 0.479119 0.517997 0.634876
696 1 0.484246 0.522626 0.63365
13 1 0.505743 0.474034 0.372785
15 1 0.51185 0.477253 0.374068
14 1 0.510747 0.473099 0.35953
16 1 0.51474 0.478313 0.361965
18 1 0.515689 0.479963 0.368768
19 1 0.520074 0.485279 0.370243
21 1 0.522511 0.489282 0.365002
30 1 0.524492 0.495867 0.366338
32 1 0.524793 0.498153 0.372984
117 1 0.505418 0.474275 0.409944
65 1 0.500782 0.473745 0.396749
67 1 0.507512 0.475279 0.398047
119 1 0.509658 0.476115 0.404686
121 1 0.515332 0.480014 0.406135
122 1 0.516894 0.481619 0.412846
123 1 0.521044 0.487116 0.414232
12 1 0.501046 0.472816 0.377872
66 1 0.503032 0.473693 0.384663
68 1 0.509521 0.476213 0.386044
69 1 0.511574 0.477352 0.392713
70 1 0.51696 0.481678 0.394141
72 1 0.51849 0.483373 0.400823
74 1 0.522107 0.48925 0.402224
125 1 0.523003 0.491306 0.408914
137 1 0.524632 0.498006 0.410304
17 1 0.513513 0.478677 0.380768
71 1 0.518477 0.483479 0.382198
73 1 0.519837 0.485315 0.388864
75 1 0.522987 0.491466 0.390259
83 1 0.523678 0.493625 0.396926
20 1 0.521149 0.487278 0.376916
27 1 0.523831 0.493653 0.378305
84 1 0.524294 0.495909 0.384968
82 2 0.504621 0.492491 0.393347
118 1 0.507726 0.4748 0.416518
134 2 0.506199 0.494261 0.409725
26 2 0.508124 0.498777 0.377928
227 1 0.500818 0.475048 0.453357
229 1 0.507762 0.475381 0.454206
171 1 0.500556 0.47431 0.434906
172 1 0.502982 0.474784 0.441438
174 1 0.509781 0.476366 0.442506
230 1 0.512152 0.477135 0.449063
232 1 0.517876 0.481117 0.450445
233 1 0.519937 0.4827 0.457089
173 1 0.50509 0.474587 0.429587
175 1 0.511508 0.477334 0.430462
176 1 0.513666 0.478552 0.437064
178 1 0.518883 0.483086 0.43834
180 1 0.520558 0.484762 0.445014
235 1 0.523785 0.490886 0.446322
245 1 0.524714 0.493026 0.452993
120 1 0.513438 0.478535 0.418163
177 1 0.515134 0.479931 0.424932
179 1 0.519859 0.485027 0.42626
181 1 0.521331 0.486879 0.432934
189 1 0.524084 0.493218 0.434289
191 1 0.524782 0.495385 0.440973
124 1 0.522136 0.489055 0.420921
136 1 0.524369 0.495589 0.422299
193 1 0.524843 0.497786 0.428982
188 2 0.506328 0.494542 0.430175
244 2 0.507061 0.494794 0.449901
249 1 0.525592 0.499876 0.454315
281 1 0.505767 0.475576 0.485484
228 1 0.505468 0.475028 0.467134
283 1 0.512332 0.477763 0.486755
231 1 0.517558 0.479075 0.462619
286 1 0.518604 0.480924 0.469304
288 1 0.523058 0.486234 0.470499
234 1 0.523471 0.488653 0.458398
236 1 0.524807 0.49063 0.465106
247 1 0.526386 0.497494 0.466236
342 1 0.514366 0.478821 0.493417
335 1 0.501227 0.47491 0.490806
300 1 0.526964 0.497586 0.485865
344 1 0.519786 0.483125 0.494765
289 1 0.524677 0.487561 0.477202
359 1 0.525923 0.49527 0.497555
356 1 0.525796 0.492907 0.490937
346 1 0.522835 0.486618 0.489411
287 1 0.521589 0.484476 0.482721
285 1 0.516342 0.479971 0.481384
284 1 0.514574 0.478451 0.474682
282 1 0.508061 0.475783 0.47357
337 1 0.503548 0.47494 0.497437
340 1 0.510245 0.476691 0.49874
280 1 0.503471 0.475253 0.478862
355 2 0.506939 0.493493 0.49796
296 2 0.505772 0.492613 0.466946
297 2 0.509417 0.49953 0.482523
416 1 0.52578 0.497925 0.522894
406 1 0.524006 0.491204 0.521557
471 1 0.525635 0.497776 0.541626
468 1 0.525178 0.495528 0.534951
457 1 0.522904 0.489014 0.533568
455 1 0.520563 0.485008 0.538894
453 1 0.51595 0.479815 0.537563
400 1 0.514325 0.478411 0.530774
398 1 0.508666 0.474623 0.529092
405 1 0.523213 0.488997 0.514885
397 1 0.505997 0.474327 0.52263
336 1 0.501271 0.474367 0.509433
339 1 0.508079 0.475631 0.510715
399 1 0.510256 0.476246 0.517362
401 1 0.516095 0.47997 0.518788
402 1 0.51773 0.48156 0.525479
404 1 0.521899 0.487055 0.526869
357 1 0.524999 0.493188 0.509517
347 1 0.524472 0.490918 0.502874
345 1 0.521131 0.484889 0.501481
341 1 0.512313 0.47755 0.505415
343 1 0.517945 0.481532 0.506804
403 1 0.519432 0.483212 0.513497
414 2 0.506059 0.493417 0.523256
450 1 0.506089 0.474138 0.542156
469 1 0.525415 0.495411 0.553581
466 1 0.524753 0.493224 0.546915
456 1 0.521946 0.486903 0.54556
525 1 0.525161 0.493086 0.565559
515 1 0.524291 0.490952 0.558904
513 1 0.520971 0.484891 0.557594
454 1 0.519403 0.483151 0.550949
452 1 0.514268 0.478528 0.549704
451 1 0.512338 0.47716 0.543085
580 1 0.526231 0.497573 0.57887
570 1 0.524728 0.490826 0.577542
514 1 0.523661 0.488748 0.570898
512 1 0.519775 0.483019 0.569617
511 1 0.51805 0.481402 0.562973
509 1 0.512421 0.477364 0.561716
507 1 0.51028 0.476295 0.555086
449 1 0.503608 0.474315 0.55385
448 1 0.501281 0.473746 0.547233
568 1 0.522797 0.486693 0.582905
566 1 0.518323 0.481397 0.581657
510 1 0.516487 0.479896 0.575014
508 1 0.510472 0.476463 0.573752
506 1 0.508246 0.47562 0.567109
505 1 0.501424 0.474435 0.565817
562 1 0.506117 0.475193 0.579138
465 2 0.508804 0.499482 0.546377
529 1 0.526047 0.499937 0.566917
629 2 0.510461 0.497568 0.60847
634 1 0.527085 0.497484 0.59748
579 1 0.526408 0.495237 0.590834
569 1 0.524103 0.488686 0.589532
630 1 0.526583 0.492687 0.602588
621 1 0.523389 0.486508 0.601503
567 1 0.52168 0.484818 0.594905
565 1 0.516577 0.480132 0.593708
564 1 0.514665 0.47873 0.587067
563 1 0.508358 0.475878 0.585802
622 1 0.529365 0.486427 0.614529
620 1 0.522879 0.483874 0.613589
619 1 0.52057 0.482979 0.606964
618 1 0.514722 0.479234 0.605771
616 1 0.512626 0.477966 0.599142
614 1 0.506121 0.475544 0.597881
561 1 0.503888 0.474991 0.591186
675 1 0.518922 0.481805 0.619114
617 1 0.512786 0.478489 0.617886
615 1 0.510654 0.477354 0.611211
613 1 0.504088 0.475108 0.609939
612 1 0.501592 0.474787 0.603265
672 1 0.508502 0.476954 0.623329
669 1 0.501786 0.475154 0.622121
577 2 0.508072 0.495603 0.583885
581 1 0.526447 0.499834 0.585525
689 1 0.528652 0.497733 0.634634
680 1 0.526445 0.4911 0.633634
679 1 0.525269 0.488603 0.627192
677 1 0.52057 0.483553 0.625807
678 1 0.52359 0.487668 0.639047
676 1 0.518681 0.482777 0.637818
674 1 0.516789 0.481135 0.631224
673 1 0.51067 0.477921 0.629965
671 1 0.50625 0.476737 0.635288
670 2 0.502245 0.494274 0.635439
28 1 0.52465 0.507267 0.362314
54 1 0.524029 0.509559 0.368938
53 1 0.52124 0.515893 0.37023
51 1 0.518601 0.519665 0.364941
49 1 0.513384 0.524152 0.366259
48 1 0.510984 0.52516 0.372799
47 1 0.504213 0.526938 0.374138
45 1 0.501072 0.528104 0.362116
31 1 0.524824 0.505062 0.374304
33 1 0.525049 0.50039 0.361008
133 2 0.502937 0.509165 0.416359
138 1 0.524792 0.50265 0.405001
159 1 0.523792 0.509461 0.406427
158 1 0.523107 0.511592 0.413131
157 1 0.519916 0.517719 0.414592
85 1 0.524631 0.505123 0.393001
108 1 0.523178 0.511919 0.394359
107 1 0.52243 0.513919 0.401154
104 1 0.519376 0.520004 0.402852
155 1 0.517167 0.521478 0.409328
153 1 0.511075 0.524984 0.410471
29 1 0.524407 0.507339 0.380956
106 1 0.52227 0.513914 0.382217
105 1 0.521342 0.516041 0.388852
103 1 0.517378 0.521737 0.389798
101 1 0.508619 0.527181 0.398492
151 1 0.506553 0.526492 0.405174
52 1 0.519892 0.517863 0.376855
50 1 0.514994 0.522829 0.378109
102 1 0.513239 0.524268 0.38475
100 1 0.50665 0.526429 0.386282
99 1 0.504245 0.526831 0.392988
46 1 0.502029 0.526811 0.38093
86 1 0.524851 0.502804 0.386328
81 2 0.505957 0.509791 0.396825
87 1 0.524765 0.500453 0.398304
246 1 0.524998 0.504496 0.449038
270 1 0.523001 0.511086 0.450482
269 1 0.522003 0.513049 0.45718
190 1 0.524406 0.506886 0.43708
214 1 0.522059 0.513378 0.438504
213 1 0.520884 0.515252 0.445216
266 1 0.516713 0.520742 0.446638
265 1 0.514517 0.521847 0.453321
263 1 0.508244 0.52483 0.454836
135 1 0.524326 0.507084 0.41841
215 1 0.523764 0.509216 0.425105
212 1 0.520928 0.515493 0.426517
211 1 0.519651 0.517346 0.433178
210 1 0.515081 0.522534 0.4345
209 1 0.513943 0.524246 0.44121
261 1 0.503626 0.526009 0.449737
156 1 0.518283 0.519304 0.421237
154 1 0.512876 0.523609 0.422556
208 1 0.510817 0.524705 0.429224
207 1 0.503964 0.526289 0.430328
206 1 0.501241 0.526526 0.436762
152 1 0.508722 0.525382 0.417132
150 1 0.501816 0.525938 0.418389
194 1 0.525162 0.502281 0.442355
192 1 0.524773 0.504683 0.430395
187 2 0.503609 0.509555 0.442637
139 1 0.524864 0.500208 0.416997
383 1 0.519294 0.516459 0.489271
301 1 0.526959 0.500096 0.472721
380 1 0.514064 0.52098 0.490634
379 1 0.512133 0.522249 0.497303
298 1 0.525114 0.506641 0.474447
321 1 0.524337 0.508649 0.481243
248 1 0.52576 0.502123 0.460972
271 1 0.524047 0.50882 0.462441
320 1 0.523136 0.510845 0.469158
318 1 0.519252 0.516516 0.470599
268 1 0.517832 0.51855 0.458616
267 1 0.516022 0.519845 0.465313
264 1 0.510105 0.523367 0.466724
262 1 0.505806 0.524945 0.461424
319 1 0.52075 0.514596 0.482603
358 1 0.525069 0.506689 0.4934
299 1 0.525842 0.50444 0.486779
361 1 0.526026 0.502225 0.498783
385 1 0.522114 0.51294 0.494663
312 1 0.501035 0.525192 0.474625
314 1 0.507852 0.523989 0.473344
375 1 0.501103 0.525447 0.493254
313 1 0.503366 0.52505 0.48661
315 1 0.51 0.523121 0.485302
316 1 0.512057 0.522102 0.478658
317 1 0.517652 0.518048 0.477287
377 1 0.505707 0.524787 0.49859
429 1 0.5012 0.525746 0.530943
431 1 0.508014 0.524361 0.52958
485 1 0.51005 0.523421 0.541642
486 1 0.512237 0.522588 0.534985
489 1 0.518212 0.519076 0.533689
491 1 0.521258 0.515374 0.538969
493 1 0.524808 0.509294 0.537791
415 1 0.526021 0.506904 0.531328
417 1 0.526041 0.5024 0.517379
437 1 0.525066 0.509278 0.5183
430 1 0.505826 0.524962 0.51753
435 1 0.520199 0.518353 0.526984
360 1 0.525647 0.504598 0.505395
386 1 0.523492 0.511218 0.506627
436 1 0.522652 0.513454 0.513236
434 1 0.518067 0.51869 0.514763
433 1 0.516345 0.520415 0.521477
432 1 0.510165 0.523473 0.522861
376 1 0.503508 0.525407 0.505242
384 1 0.520876 0.514964 0.501304
382 1 0.515996 0.519851 0.502695
381 1 0.514168 0.521252 0.509408
378 1 0.507892 0.524268 0.510748
354 2 0.508726 0.504208 0.51084
464 2 0.502571 0.508665 0.533497
362 1 0.52601 0.50003 0.510768
418 1 0.525977 0.500091 0.529663
470 1 0.525599 0.504702 0.543049
527 1 0.525768 0.502304 0.554967
483 1 0.501022 0.525614 0.549586
484 1 0.503392 0.525321 0.542947
540 1 0.503192 0.52534 0.561589
541 1 0.505506 0.524801 0.554954
487 1 0.51197 0.522306 0.553662
488 1 0.514077 0.521246 0.547
490 1 0.519474 0.516902 0.545653
542 1 0.505301 0.5246 0.573701
543 1 0.507559 0.52405 0.56701
544 1 0.513779 0.520994 0.565702
545 1 0.51576 0.519783 0.559035
547 1 0.520708 0.514959 0.557697
492 1 0.52214 0.513181 0.551025
467 1 0.524966 0.50688 0.549691
594 1 0.509543 0.522882 0.579057
596 1 0.515528 0.519424 0.577725
546 1 0.517376 0.518117 0.571044
548 1 0.521937 0.512932 0.569681
549 1 0.523154 0.511037 0.563012
526 1 0.52548 0.504539 0.561629
598 1 0.518943 0.516293 0.583042
600 1 0.523119 0.510803 0.581656
550 1 0.524135 0.508837 0.574972
528 1 0.525977 0.502193 0.573578
524 2 0.508892 0.50025 0.564552
632 1 0.526329 0.504407 0.598959
635 1 0.528931 0.503431 0.611005
691 1 0.53007 0.501268 0.622887
592 1 0.500588 0.525194 0.587036
593 1 0.507344 0.523624 0.585722
647 1 0.500534 0.524968 0.605708
648 1 0.50283 0.524637 0.599056
651 1 0.509411 0.522531 0.597731
595 1 0.511511 0.521637 0.591063
597 1 0.517223 0.51773 0.589723
649 1 0.502741 0.524578 0.617695
650 1 0.505007 0.524 0.611049
652 1 0.511389 0.521319 0.609724
653 1 0.513414 0.520236 0.603059
655 1 0.518832 0.51594 0.601699
599 1 0.520451 0.51437 0.595028
601 1 0.524326 0.508636 0.593651
578 1 0.525095 0.506589 0.586944
703 1 0.507115 0.523131 0.623011
705 1 0.513248 0.519921 0.6217
654 1 0.515232 0.518751 0.615039
656 1 0.52048 0.514241 0.613679
657 1 0.522 0.512539 0.60699
631 1 0.526007 0.506891 0.605611
710 1 0.523511 0.510758 0.619012
633 1 0.527769 0.50534 0.617649
712 1 0.52463 0.508492 0.630992
711 1 0.52282 0.510003 0.637622
708 1 0.518041 0.51495 0.638978
709 1 0.52189 0.512295 0.625697
704 1 0.508982 0.521885 0.634982
707 1 0.516827 0.517014 0.627035
690 1 0.528351 0.502665 0.629569
706 1 0.514787 0.518174 0.633675
702 1 0.504908 0.523896 0.62964
ITEM: TIMESTEP
1000
ITEM: NUMBER OF ATOMS
712
ITEM: BOX BOUNDS pp pp pp
-1.0000000000000000e+02 1.0000000000000000e+02
-1.0000000000000000e+02 1.0000000000000000e+02
-1.0000000000000000e+02 1.0000000000000000e+02
ITEM: ATOMS id type xs ys zs
24 1 0.477035 0.494643 0.363737
2 1 0.478787 0.488044 0.364887
3 1 0.478462 0.485905 0.371537
5 1 0.481682 0.479753 0.373208
4 1 0.480536 0.483913 0.359608
6 1 0.484169 0.478052 0.361085
8 1 0.485139 0.476117 0.368031
9 1 0.490745 0.472215 0.369849
11 1 0.49481 0.469389 0.364341
296 2 0.49589 0.491659 0.468378
126 1 0.473617 0.496581 0.413929
78 1 0.472229 0.493137 0.401927
129 1 0.473315 0.491883 0.408623
110 1 0.476576 0.485534 0.409347
80 1 0.474642 0.492133 0.389949
55 1 0.474594 0.489281 0.396468
56 1 0.478127 0.483471 0.397586
111 1 0.479519 0.481803 0.404413
113 1 0.485098 0.477482 0.406168
114 1 0.487603 0.476353 0.412761
115 1 0.494166 0.474193 0.413802
23 1 0.475336 0.496784 0.375678
1 1 0.475941 0.489813 0.37646
57 1 0.479213 0.48037 0.385635
58 1 0.481375 0.479709 0.392436
59 1 0.487124 0.475894 0.394189
60 1 0.489247 0.475425 0.400946
63 1 0.49583 0.473552 0.402092
116 1 0.498394 0.473608 0.408486
7 1 0.481833 0.477324 0.379892
61 1 0.491367 0.473984 0.389065
64 1 0.498172 0.472904 0.389767
10 1 0.494029 0.472543 0.376258
62 2 0.493177 0.492828 0.376708
26 2 0.496503 0.486646 0.356509
240 1 0.471964 0.491596 0.446876
216 1 0.47417 0.49078 0.453191
218 1 0.478682 0.485447 0.454535
160 1 0.472854 0.488647 0.434921
161 1 0.4746 0.487546 0.441661
163 1 0.480415 0.483594 0.442747
220 1 0.482145 0.482198 0.449367
222 1 0.487936 0.478491 0.450758
223 1 0.489624 0.47739 0.457554
127 1 0.47382 0.494485 0.420666
109 1 0.474871 0.487804 0.422793
162 1 0.476182 0.485578 0.429333
164 1 0.481727 0.4811 0.430605
165 1 0.483618 0.480164 0.437608
167 1 0.489823 0.477045 0.438682
169 1 0.492013 0.476288 0.445421
225 1 0.498519 0.474896 0.446787
112 1 0.483488 0.478301 0.418452
166 1 0.485507 0.478472 0.425199
168 1 0.491547 0.475601 0.42694
170 1 0.494396 0.475685 0.433367
132 2 0.489716 0.497654 0.429213
186 2 0.489995 0.497048 0.452184
182 1 0.473213 0.499391 0.42574
324 1 0.476798 0.488601 0.497497
131 2 0.493188 0.494425 0.395846
326 1 0.480646 0.482938 0.498526
292 1 0.473332 0.495656 0.477033
291 1 0.473121 0.498053 0.470639
238 1 0.473582 0.49567 0.458281
241 1 0.474164 0.493533 0.465061
217 1 0.477008 0.487206 0.466489
219 1 0.480098 0.483851 0.461131
221 1 0.485405 0.479298 0.46292
276 1 0.487526 0.477571 0.469411
278 1 0.49426 0.47613 0.47112
272 1 0.476532 0.485529 0.485889
224 1 0.496335 0.47523 0.458831
226 1 0.498601 0.475152 0.465638
273 1 0.481745 0.480868 0.48716
328 1 0.483776 0.479189 0.493388
349 1 0.474115 0.497476 0.489356
279 1 0.496571 0.474902 0.4776
332 1 0.494465 0.474558 0.489504
277 1 0.492129 0.475406 0.483019
275 1 0.485667 0.47818 0.481856
274 1 0.483466 0.478711 0.4751
330 1 0.48974 0.475797 0.494801
322 1 0.475479 0.490418 0.490836
355 2 0.496522 0.49096 0.485931
290 1 0.473766 0.499805 0.482471
22 1 0.476446 0.499183 0.369376
76 1 0.474584 0.49887 0.388281
338 2 0.49125 0.49583 0.499064
393 1 0.489529 0.476073 0.513384
447 1 0.495763 0.473194 0.533542
445 1 0.491829 0.474584 0.53891
443 1 0.485491 0.477415 0.53761
390 1 0.483791 0.479425 0.531159
388 1 0.478986 0.483899 0.529386
329 1 0.487354 0.476744 0.50668
439 1 0.476421 0.48844 0.533977
461 1 0.474794 0.495226 0.532944
407 1 0.474868 0.497143 0.52631
409 1 0.475565 0.494921 0.514651
411 1 0.475869 0.492651 0.521134
387 1 0.477824 0.485922 0.522678
352 1 0.47531 0.492825 0.502617
323 1 0.476045 0.490583 0.509111
325 1 0.47901 0.484274 0.510851
389 1 0.480639 0.482474 0.517438
391 1 0.485485 0.47777 0.5188
392 1 0.487539 0.477288 0.525495
394 1 0.493679 0.474221 0.526888
334 1 0.498706 0.47433 0.502525
331 1 0.49165 0.47508 0.501325
396 1 0.498445 0.474033 0.521346
395 1 0.496507 0.474755 0.514536
327 1 0.481934 0.481113 0.505164
668 1 0.499531 0.474927 0.63441
683 1 0.474518 0.495371 0.627217
571 1 0.473992 0.499661 0.595243
662 1 0.486583 0.479099 0.632202
446 1 0.494156 0.473776 0.545739
504 1 0.499057 0.473997 0.559268
502 1 0.492334 0.475617 0.557829
444 1 0.489788 0.47582 0.551055
442 1 0.483583 0.478969 0.549789
441 1 0.481303 0.479564 0.542998
560 1 0.498889 0.474653 0.577921
503 1 0.496658 0.47477 0.571176
501 1 0.489974 0.476612 0.569829
500 1 0.487971 0.477552 0.562986
498 1 0.48212 0.481197 0.561432
496 1 0.480005 0.482261 0.554929
440 1 0.47609 0.48793 0.553558
438 1 0.47541 0.490487 0.546943
459 1 0.474786 0.497187 0.545529
558 1 0.494306 0.475505 0.583015
556 1 0.4877 0.477428 0.581718
499 1 0.485935 0.478479 0.575258
497 1 0.480416 0.482823 0.573758
495 1 0.479106 0.484657 0.567217
494 1 0.475478 0.490547 0.56576
520 1 0.474996 0.492734 0.558907
552 1 0.477781 0.486775 0.579312
575 1 0.47552 0.493267 0.577572
518 1 0.47469 0.495199 0.57094
572 1 0.474511 0.497644 0.582849
522 2 0.495612 0.492527 0.594066
463 2 0.491503 0.492958 0.555481
659 1 0.478856 0.487824 0.635324
559 1 0.496705 0.475163 0.589771
610 1 0.494337 0.474906 0.601758
557 1 0.492136 0.47568 0.595173
555 1 0.485538 0.478503 0.593756
554 1 0.483823 0.47965 0.587255
553 1 0.478852 0.484868 0.585944
661 1 0.481203 0.483399 0.630429
609 1 0.489834 0.476149 0.606808
608 1 0.484069 0.479888 0.605858
606 1 0.481729 0.481331 0.599385
604 1 0.477718 0.486767 0.597863
551 1 0.476557 0.488912 0.591127
573 1 0.474465 0.495262 0.589676
663 1 0.488263 0.47768 0.620253
607 1 0.48256 0.481537 0.618288
605 1 0.480881 0.4829 0.611349
603 1 0.476841 0.488375 0.610139
602 1 0.475603 0.490785 0.603332
624 1 0.474331 0.497332 0.601963
660 1 0.479407 0.484768 0.623738
658 1 0.475943 0.490549 0.622174
626 1 0.475142 0.492866 0.615388
681 1 0.47389 0.497836 0.639126
686 1 0.475844 0.493628 0.63407
458 1 0.474957 0.499319 0.538607
667 1 0.497191 0.47497 0.62781
665 1 0.490465 0.47689 0.626909
666 1 0.495225 0.475745 0.639717
664 1 0.488831 0.478557 0.638784
348 1 0.474804 0.499825 0.501178
414 2 0.494207 0.493348 0.515026
670 2 0.498892 0.492692 0.63418
611 1 0.499948 0.472816 0.615367
44 1 0.49955 0.526789 0.368132
42 1 0.492612 0.525492 0.369857
40 1 0.488585 0.522651 0.364653
39 1 0.482979 0.518642 0.365452
38 1 0.48052 0.516965 0.371852
36 1 0.477926 0.510471 0.373232
37 1 0.481321 0.514384 0.360144
34 1 0.478753 0.508293 0.361543
25 1 0.477385 0.50609 0.368053
363 1 0.47594 0.508806 0.493444
81 2 0.499723 0.510551 0.368438
148 1 0.497663 0.524188 0.413084
147 1 0.490979 0.522266 0.414417
98 1 0.497377 0.525159 0.393949
97 1 0.495299 0.524197 0.400725
94 1 0.488984 0.521457 0.402178
145 1 0.486946 0.520215 0.408957