LAMMPS (22 Jul 2025 - Update 2)
units real
atom_style molecular
boundary f f f

pair_style lj/cut 14.0
bond_style harmonic
angle_style harmonic
dihedral_style opls
improper_style harmonic
special_bonds lj 0.0 0.0 0.5

read_data unbreakable.data
Reading data file ...
  orthogonal box = (-60 -40 -40) to (60 40 40)
  2 by 2 by 2 MPI processor grid
  reading atoms ...
  700 atoms
  scanning bonds ...
  3 = max bonds/atom
  scanning angles ...
  3 = max angles/atom
  scanning dihedrals ...
  12 = max dihedrals/atom
  scanning impropers ...
  3 = max impropers/atom
  orthogonal box = (-60 -40 -40) to (60 40 40)
  2 by 2 by 2 MPI processor grid
  reading bonds ...
  1035 bonds
  reading angles ...
  2040 angles
  reading dihedrals ...
  4030 dihedrals
  reading impropers ...
  670 impropers
Finding 1-2 1-3 1-4 neighbors ...
  special bond factors lj:    0        0        0.5     
  special bond factors coul:  0        0        0       
     3 = max # of 1-2 neighbors
     6 = max # of 1-3 neighbors
    18 = max # of 1-4 neighbors
    18 = max # of special neighbors
  special bonds CPU = 0.002 seconds
  read_data CPU = 0.092 seconds
include unbreakable.inc
pair_coeff     1 1 0.066 3.4
bond_coeff     1 469.0 1.4
angle_coeff    1 63.0 120.0
dihedral_coeff 1 0.0 7.25 0.0 0.0
improper_coeff 1 5.0 180.0

group carbon_atoms type 1
700 atoms in group carbon_atoms
variable xmax equal bound(carbon_atoms,xmax)-0.5
variable xmin equal bound(carbon_atoms,xmin)+0.5
region rtop block ${xmax} INF INF INF INF INF # 最右边小截
region rtop block 27.37 INF INF INF INF INF 
region rbot block INF ${xmin} INF INF INF INF # 最右边小截
region rbot block INF -27.37 INF INF INF INF 
region rmid block ${xmin} ${xmax} INF INF INF INF
region rmid block -27.37 ${xmax} INF INF INF INF
region rmid block -27.37 27.37 INF INF INF INF

group cnt_top region rtop
10 atoms in group cnt_top
group cnt_bot region rbot
10 atoms in group cnt_bot
group cnt_mid region rmid
680 atoms in group cnt_mid
set group cnt_top mol 1
Setting atom values ...
  10 settings made for mol
set group cnt_bot mol 2
Setting atom values ...
  10 settings made for mol
set group cnt_mid mol 3
Setting atom values ...
  680 settings made for mol

variable xmax_del equal ${xmax}-2
variable xmax_del equal 27.37-2
variable xmin_del equal ${xmin}+2
variable xmin_del equal -27.37+2
region rdel block ${xmin_del} ${xmax_del} INF INF INF INF
region rdel block -25.37 ${xmax_del} INF INF INF INF
region rdel block -25.37 25.37 INF INF INF INF
group rdel region rdel
630 atoms in group rdel
delete_atoms random fraction 0.02 no rdel NULL 2793 bond yes
WARNING: Ignoring 'compress yes' for molecular system (../delete_atoms.cpp:141)
Deleted 7 atoms, new total = 693
Deleted 21 bonds, new total = 1014
Deleted 62 angles, new total = 1978
Deleted 164 dihedrals, new total = 3866
Deleted 27 impropers, new total = 643

reset_atoms id sort yes
Resetting atom IDs ...
Generated 0 of 0 mixed pair_coeff terms from geometric mixing rule
Neighbor list info ...
  update: every = 1 steps, delay = 0 steps, check = yes
  max neighbors/atom: 2000, page size: 100000
  master list distance cutoff = 16
  ghost atom cutoff = 16
  binsize = 8, bins = 15 10 10
  1 neighbor lists, perpetual/occasional/extra = 1 0 0
  (1) pair lj/cut, perpetual
      attributes: half, newton on
      pair build: half/bin/newton
      stencil: half/bin/3d
      bin: standard
Finding 1-2 1-3 1-4 neighbors ...
  special bond factors lj:    0        0        0.5     
  special bond factors coul:  0        0        0       
     3 = max # of 1-2 neighbors
     6 = max # of 1-3 neighbors
    18 = max # of 1-4 neighbors
    18 = max # of special neighbors
  special bonds CPU = 0.002 seconds
velocity cnt_mid create 300 48455 mom yes rot yes

fix mynve1 cnt_top nve
fix mynve2 cnt_bot nve
fix mynvt cnt_mid nvt temp 300 300 100

fix mysf1 cnt_top setforce 0 0 0
fix mysf2 cnt_bot setforce 0 0 0
velocity cnt_top set 0 0 0
velocity cnt_bot set 0 0 0

variable Lcnt equal xcm(cnt_top,x)-xcm(cnt_bot,x)
variable Fcnt equal f_mysf1[1]-f_mysf2[1]

compute Tmid cnt_mid temp
thermo 100
thermo_style custom step temp etotal v_Lcnt v_Fcnt
thermo_modify temp Tmid line yaml
WARNING: Temperature for thermo pressure is not for group all (../thermo.cpp:569)

timestep 1.0
dump 1 all atom 1000 dump.lammpstrj
run 5000
Generated 0 of 0 mixed pair_coeff terms from geometric mixing rule
Per MPI rank memory allocation (min/avg/max) = 12.82 | 12.82 | 12.82 Mbytes
---
keywords: ['Step', 'Temp', 'TotEng', 'v_Lcnt', 'v_Fcnt', ]
data:
  - [0, 300, 3393.22803180669, 55.472, -220.401793187528, ]
  - [100, 210.028550281449, 3459.73928416309, 55.472, -120.430096951484, ]
  - [200, 241.954993758135, 3555.10503194368, 55.472, -32.3075327558009, ]
  - [300, 259.599353332668, 3657.02894852021, 55.472, -43.9717348755688, ]
  - [400, 290.908173357102, 3751.15069901972, 55.472, -54.0960794108679, ]
  - [500, 318.682930667899, 3822.54056225072, 55.472, 94.8149611362599, ]
  - [600, 310.492686038393, 3849.76350460973, 55.472, -73.9256096167786, ]
  - [700, 310.432011895846, 3817.15386513297, 55.472, 33.838565558407, ]
  - [800, 291.131632051709, 3767.12124582994, 55.472, 23.508411140068, ]
  - [900, 273.721254981848, 3744.60864428514, 55.472, -214.502487132233, ]
  - [1000, 307.499560264086, 3767.74801596475, 55.472, -388.757007798113, ]
  - [1100, 299.820116546238, 3804.58589147555, 55.472, -4.83693359901272, ]
  - [1200, 305.504317979183, 3823.32065519967, 55.472, -160.31995574222, ]
  - [1300, 312.350623811875, 3814.05717614161, 55.472, -410.100245890905, ]
  - [1400, 295.698935197105, 3782.6539067405, 55.472, -172.372395006204, ]
  - [1500, 278.630611363364, 3760.17165367819, 55.472, -286.14550378776, ]
  - [1600, 296.23341677163, 3759.32747889339, 55.472, -360.957426225501, ]
  - [1700, 300.142457518256, 3791.07267097962, 55.472, -75.1974775936228, ]
  - [1800, 315.785539339279, 3818.12568325452, 55.472, -113.616183695695, ]
  - [1900, 316.623134132837, 3810.39573191238, 55.472, -316.013379863116, ]
  - [2000, 295.580485038132, 3767.74099048116, 55.472, -9.98863669515023, ]
  - [2100, 288.489548915428, 3747.56866387066, 55.472, -212.195746782231, ]
  - [2200, 296.264738872735, 3762.30908268752, 55.472, -238.095923792091, ]
  - [2300, 301.770346145275, 3783.78391735001, 55.472, 158.90807905557, ]
  - [2400, 295.559882175133, 3802.12381717965, 55.472, -11.9719260093303, ]
  - [2500, 300.296911891078, 3814.51180683722, 55.472, -190.561928741854, ]
  - [2600, 314.893458653332, 3829.62060553075, 55.472, 140.517558954089, ]
  - [2700, 314.469245296858, 3812.68629643147, 55.472, 17.1774029019318, ]
  - [2800, 290.072046755484, 3773.76563508446, 55.472, -135.888188666677, ]
  - [2900, 291.281757108158, 3764.90934018244, 55.472, -65.6567992410943, ]
  - [3000, 297.484042763534, 3786.80251862718, 55.472, -151.683341380994, ]
  - [3100, 305.125723290897, 3827.07950384983, 55.472, -132.902646802944, ]
  - [3200, 311.255140549797, 3830.10759332004, 55.472, -155.29458444243, ]
  - [3300, 294.46238106181, 3779.20416515135, 55.472, -69.0240053185298, ]
  - [3400, 291.179446253806, 3754.41925630069, 55.472, -496.688813621039, ]
  - [3500, 298.649776942315, 3773.57489008055, 55.472, -197.093141140836, ]
  - [3600, 312.541270979921, 3802.35541176769, 55.472, -62.4500435463983, ]
  - [3700, 311.526198985768, 3819.18395281715, 55.472, -370.583367970221, ]
  - [3800, 296.191928853642, 3814.97630616825, 55.472, -155.54330289628, ]
  - [3900, 307.842851066239, 3763.49861400108, 55.472, -74.1605555056034, ]
  - [4000, 288.701788536683, 3752.69576319063, 55.472, -24.6981247176237, ]
  - [4100, 318.723275512614, 3777.16152293359, 55.472, -1.93512732817091, ]
  - [4200, 302.9442755097, 3800.82583994159, 55.472, -115.700803759456, ]
  - [4300, 298.689014233194, 3802.99375050949, 55.472, -332.440037182228, ]
  - [4400, 310.835993977973, 3794.44676954473, 55.472, -80.4027802748281, ]
  - [4500, 289.459693896395, 3788.85789281201, 55.472, 17.0953334069554, ]
  - [4600, 300.0233676656, 3786.89589146381, 55.472, -202.054078530624, ]
  - [4700, 282.553258940362, 3781.58306132591, 55.472, -156.616059618692, ]
  - [4800, 294.652247568921, 3768.31183963514, 55.472, 65.5630727444638, ]
  - [4900, 292.174852362702, 3772.28609580686, 55.472, -400.797267469947, ]
  - [5000, 292.333930854591, 3801.0031092351, 55.472, -132.277326816489, ]
...
Loop time of 2.82924 on 8 procs for 5000 steps with 693 atoms

Performance: 152.691 ns/day, 0.157 hours/ns, 1767.260 timesteps/s, 1.225 Matom-step/s
99.8% CPU use with 8 MPI tasks x no OpenMP threads

MPI task timing breakdown:
Section |  min time  |  avg time  |  max time  |%varavg| %total
---------------------------------------------------------------
Pair    | 0.19455    | 0.79655    | 1.265      |  44.8 | 28.15
Bond    | 0.79799    | 0.94878    | 1.1094     |   8.7 | 33.53
Neigh   | 0.00074568 | 0.00075005 | 0.00075278 |   0.0 |  0.03
Comm    | 0.523      | 0.96739    | 1.6026     |  42.3 | 34.19
Output  | 0.0038292  | 0.012371   | 0.030188   |   6.7 |  0.44
Modify  | 0.051668   | 0.062189   | 0.075      |   3.2 |  2.20
Other   |            | 0.04121    |            |       |  1.46

Nlocal:         86.625 ave          89 max          83 min
Histogram: 1 0 0 1 0 2 0 0 3 1
Nghost:        457.375 ave         461 max         455 min
Histogram: 1 3 0 0 0 2 1 0 0 1
Neighs:        12763.5 ave       23272 max        2868 min
Histogram: 2 0 0 2 0 0 2 0 1 1

Total # of neighbors = 102108
Ave neighs/atom = 147.34199
Ave special neighs/atom = 17.064935
Neighbor list builds = 1
Dangerous builds = 0

undump 1  # 关掉之前的摄像头

velocity cnt_top set 0.0005 0 0    # 右端夹具以 0.0005 Å/fs 的速度向右移动
velocity cnt_bot set -0.0005 0 0   # 左端夹具以 0.0005 Å/fs 的速度向左移动

dump 2 all atom 50 dump.lammpstrj

run 10000
Generated 0 of 0 mixed pair_coeff terms from geometric mixing rule
Per MPI rank memory allocation (min/avg/max) = 12.82 | 12.82 | 12.82 Mbytes
---
keywords: ['Step', 'Temp', 'TotEng', 'v_Lcnt', 'v_Fcnt', ]
data:
  - [5000, 292.33393085459, 3801.0031092351, 55.472, -132.27732681649, ]
  - [5100, 308.263610373365, 3825.4007737268, 55.5719999999998, -202.996583081262, ]
  - [5200, 300.40315618326, 3816.20566780413, 55.6719999999995, -372.096678643505, ]
  - [5300, 299.498923933335, 3786.81956809925, 55.7719999999993, -447.118844095081, ]
  - [5400, 286.263875391587, 3797.44264253633, 55.8719999999991, -448.227487212229, ]
  - [5500, 296.652360793246, 3832.72289853079, 55.9719999999988, -565.358026411747, ]
  - [5600, 307.291475137927, 3864.76456112298, 56.0719999999986, -527.051592254908, ]
  - [5700, 315.056755307192, 3891.54925936866, 56.1719999999984, -511.083472203076, ]
  - [5800, 302.906134580155, 3920.93447789398, 56.2719999999981, -655.322008780185, ]
  - [5900, 310.404563668682, 3931.6674302144, 56.3719999999979, -545.988208879728, ]
  - [6000, 291.506733833291, 3908.86312848058, 56.4719999999977, -486.789025893028, ]
  - [6100, 292.536753583146, 3950.65706563465, 56.5719999999975, -646.602745354469, ]
  - [6200, 304.587814079998, 4022.70825164515, 56.6719999999972, -703.273444145131, ]
  - [6300, 295.177471889165, 4073.01877935761, 56.771999999997, -725.812374946743, ]
  - [6400, 303.400309088255, 4106.07135560433, 56.8719999999967, -777.946399846541, ]
  - [6500, 306.252228293718, 4135.11652682158, 56.9719999999965, -827.556020444459, ]
  - [6600, 307.64861717423, 4136.54962238224, 57.0719999999963, -791.517761251008, ]
  - [6700, 276.189666341592, 4172.39865856366, 57.171999999996, -927.963481330095, ]
  - [6800, 296.357219586082, 4263.18212100845, 57.2719999999958, -767.841834966664, ]
  - [6900, 314.761003694112, 4331.1805545281, 57.3719999999956, -997.559629205435, ]
  - [7000, 298.580315036511, 4378.15524103895, 57.4719999999953, -1121.04943073308, ]
  - [7100, 297.261774650647, 4418.57215313456, 57.5719999999951, -1251.99899991398, ]
  - [7200, 305.306681874636, 4447.91172564112, 57.6719999999949, -1154.90906745095, ]
  - [7300, 274.039247758988, 4479.14415474997, 57.7719999999946, -1152.76019130288, ]
  - [7400, 294.77955088868, 4560.96941667015, 57.8719999999944, -1436.87387148347, ]
  - [7500, 309.310291859164, 4672.1268100942, 57.9719999999942, -1318.31603509016, ]
  - [7600, 307.927449358421, 4746.00321712916, 58.0719999999939, -1252.22765264296, ]
  - [7700, 305.277559317461, 4807.53981528386, 58.1719999999937, -1354.93961218066, ]
  - [7800, 300.819125237851, 4834.76652797919, 58.2719999999935, -1457.94086967555, ]
  - [7900, 292.966478073922, 4897.48650089957, 58.3719999999932, -1452.89508074478, ]
  - [8000, 297.708630613673, 4993.82266334921, 58.471999999993, -1687.79829810255, ]
  - [8100, 294.743074456235, 5079.72060736082, 58.5719999999928, -1349.396525774, ]
  - [8200, 303.157827465397, 5165.3643323736, 58.6719999999925, -1591.48056121967, ]
  - [8300, 304.881968632566, 5256.17805601417, 58.7719999999923, -1765.87781891522, ]
  - [8400, 308.481743227074, 5345.74524867632, 58.8719999999921, -1545.75349736274, ]
  - [8500, 295.332039899612, 5414.2551240051, 58.9719999999918, -1645.28185979937, ]
  - [8600, 293.248367580777, 5484.43209497014, 59.0719999999916, -1771.39911755544, ]
  - [8700, 293.598559732351, 5559.54006506403, 59.1719999999914, -1728.02900629148, ]
  - [8800, 304.667753393566, 5658.15884545968, 59.2719999999912, -1635.74756048749, ]
  - [8900, 309.466351993892, 5806.14552299224, 59.3719999999909, -1952.54687293483, ]
  - [9000, 297.007381597387, 5909.63109409755, 59.4719999999907, -1913.05828288412, ]
  - [9100, 306.530105119013, 5978.4838466581, 59.5719999999905, -2070.26642430775, ]
  - [9200, 298.069001593688, 6060.83165906483, 59.6719999999902, -1968.08158678773, ]
  - [9300, 298.876396334784, 6165.70101683696, 59.77199999999, -1958.64801542282, ]
  - [9400, 296.228479420833, 6275.91081149681, 59.8719999999898, -2006.7827662744, ]
  - [9500, 304.978332486221, 6400.05855005161, 59.9719999999895, -2186.66745416436, ]
  - [9600, 306.891268732034, 6535.04682542625, 60.0719999999893, -2078.07416001333, ]
  - [9700, 316.447038222453, 6678.07321340194, 60.171999999989, -2380.57507732621, ]
  - [9800, 305.524349287002, 6771.66176340483, 60.2719999999888, -2339.8814579478, ]
  - [9900, 309.449420467237, 6848.29423226754, 60.3719999999886, -2212.18251314523, ]
  - [10000, 299.968568213073, 6950.91926502574, 60.4719999999883, -2502.43523295996, ]
  - [10100, 289.086665435963, 7074.68314485106, 60.5719999999881, -2510.3004199902, ]
  - [10200, 301.326974502391, 7225.52726748006, 60.6719999999879, -2322.87783737359, ]
  - [10300, 312.535160400791, 7385.52448213213, 60.7719999999876, -2633.69579747089, ]
  - [10400, 306.950019529468, 7508.10222977604, 60.8719999999874, -2722.13067570978, ]
  - [10500, 295.11896683351, 7586.03356008869, 60.9719999999872, -2513.15401130491, ]
  - [10600, 287.893107431588, 7711.40365655417, 61.0719999999869, -2834.04982309111, ]
  - [10700, 292.025595239947, 7860.57116032363, 61.1719999999867, -2803.89245176938, ]
  - [10800, 305.257816920021, 8025.05102162845, 61.2719999999865, -2735.20501488725, ]
  - [10900, 319.917902776386, 8182.86490416492, 61.3719999999862, -2866.43739132829, ]
  - [11000, 299.922375501334, 8304.46365527578, 61.471999999986, -2959.44586278898, ]
  - [11100, 295.232211331547, 8405.75131015593, 61.5719999999858, -2813.13111491748, ]
  - [11200, 294.310523596189, 8551.0163162893, 61.6719999999855, -3007.47582217075, ]
  - [11300, 314.398425425937, 8726.67291560207, 61.7719999999853, -3020.22059935801, ]
  - [11400, 316.98920046107, 8913.11661658549, 61.8719999999851, -2882.72105794015, ]
  - [11500, 314.518403739059, 9069.96553301068, 61.9719999999849, -3006.2060206362, ]
  - [11600, 288.27909940872, 9167.87788235429, 62.0719999999846, -3407.00336423513, ]
  - [11700, 270.036845901197, 9310.18254311477, 62.1719999999844, -3217.24815201289, ]
  - [11800, 291.970625190108, 9486.87279506119, 62.2719999999842, -3217.915787546, ]
  - [11900, 310.03010298963, 9687.00640567223, 62.3719999999839, -3302.07704915525, ]
  - [12000, 313.001669366602, 9860.67891532007, 62.4719999999837, -3433.96464508757, ]
  - [12100, 289.614846497096, 10001.0093469425, 62.5719999999835, -3454.76225829561, ]
  - [12200, 300.434829534467, 10120.4541397311, 62.6719999999832, -3437.09457745887, ]
  - [12300, 292.757938438045, 10307.2345845494, 62.771999999983, -3342.63806906192, ]
  - [12400, 308.507553978529, 10512.0920765175, 62.8719999999828, -3565.09316227952, ]
  - [12500, 311.298071832153, 10707.6842993286, 62.9719999999825, -3716.61812615012, ]
  - [12600, 306.903463983259, 10882.0785115821, 63.0719999999823, -3415.95107474047, ]
  - [12700, 297.153060791347, 11043.226694531, 63.171999999982, -3590.53348131135, ]
  - [12800, 284.376093694656, 11173.787768857, 63.2719999999818, -3843.76189175397, ]
  - [12900, 286.374487381863, 11355.1049084049, 63.3719999999816, -3623.50018659376, ]
  - [13000, 285.355034645598, 11572.9403728016, 63.4719999999814, -3607.98415959212, ]
  - [13100, 291.202949952118, 11792.2901929623, 63.5719999999811, -3922.46902903996, ]
  - [13200, 307.857337153156, 12003.6875589613, 63.6719999999809, -3776.78355222336, ]
  - [13300, 301.438629409389, 12200.3047896134, 63.7719999999808, -3873.2837229539, ]
  - [13400, 301.4619244415, 12381.0156352554, 63.8719999999809, -3937.49052278981, ]
  - [13500, 296.058984897265, 12541.0012277793, 63.971999999981, -3766.43764279487, ]
  - [13600, 292.408934561285, 12741.7843492448, 64.0719999999812, -3945.06751622326, ]
  - [13700, 298.347811937356, 12988.5899336091, 64.1719999999813, -4105.12984374337, ]
  - [13800, 296.607677481623, 13207.781808005, 64.2719999999814, -3942.95447494078, ]
  - [13900, 303.284405059053, 13408.1471092625, 64.3719999999819, -4120.35199104677, ]
  - [14000, 297.992900540493, 13606.7786711115, 64.4719999999824, -4215.85550489696, ]
  - [14100, 289.348930482465, 13795.4299399757, 64.5719999999829, -4193.77610249826, ]
  - [14200, 279.958082056128, 13968.0612790008, 64.6719999999833, -4478.08287976134, ]
  - [14300, 291.593732557307, 14206.3516784537, 64.7719999999838, -4416.65504086313, ]
  - [14400, 291.428695844923, 14465.865412621, 64.8719999999843, -4256.84116364047, ]
  - [14500, 294.766618033511, 14700.5910740459, 64.9719999999848, -4515.68577915073, ]
  - [14600, 291.800243135347, 14935.5068369044, 65.0719999999852, -4635.63178018834, ]
  - [14700, 318.868097033967, 15163.4628054245, 65.1719999999857, -4515.45929852538, ]
  - [14800, 291.153466488522, 15364.9448959998, 65.2719999999862, -4580.33803880255, ]
  - [14900, 286.504918998606, 15570.55714405, 65.3719999999867, -4567.270588584, ]
  - [15000, 303.835961016976, 15813.7340332635, 65.4719999999872, -4486.94966879118, ]
...
Loop time of 5.91065 on 8 procs for 10000 steps with 693 atoms

Performance: 146.177 ns/day, 0.164 hours/ns, 1691.861 timesteps/s, 1.172 Matom-step/s
98.9% CPU use with 8 MPI tasks x no OpenMP threads

MPI task timing breakdown:
Section |  min time  |  avg time  |  max time  |%varavg| %total
---------------------------------------------------------------
Pair    | 0.36115    | 1.5178     | 2.6828     |  65.3 | 25.68
Bond    | 1.5384     | 1.7466     | 1.9736     |   9.3 | 29.55
Neigh   | 0.0041298  | 0.00415    | 0.0041769  |   0.0 |  0.07
Comm    | 0.82705    | 1.9368     | 3.1285     |  59.5 | 32.77
Output  | 0.039672   | 0.29992    | 0.55468    |  28.4 |  5.07
Modify  | 0.08171    | 0.1078     | 0.12917    |   4.7 |  1.82
Other   |            | 0.2976     |            |       |  5.03

Nlocal:         86.625 ave          89 max          85 min
Histogram: 1 0 4 0 0 1 0 1 0 1
Nghost:        427.375 ave         429 max         425 min
Histogram: 1 0 1 0 0 1 0 4 0 1
Neighs:        11263.1 ave       20087 max        2523 min
Histogram: 2 0 0 2 0 0 2 0 0 2

Total # of neighbors = 90105
Ave neighs/atom = 130.02165
Ave special neighs/atom = 17.064935
Neighbor list builds = 5
Dangerous builds = 0
Total wall time: 0:00:08
