LAMMPS data file via write_data, version 22 Jul 2025, timestep = 1000, units = lj

1150 atoms
2 atom types

-20 20 xlo xhi
-20 20 ylo yhi
-20 20 zlo zhi

Masses

1 1
2 5

Pair Coeffs # lj/cut

1 1 1
2 0.5 3

Atoms # atomic

96 1 -9.14875383991095 -19.473382194285126 -19.11853812925196 0 0 0
77 1 -8.48675624709653 -19.52879820041283 -18.21650495344235 0 0 0
37 1 -7.466309200663153 -19.868682575519966 -18.52927324728137 0 0 0
42 1 -8.064352614199167 -19.207502228939138 -19.207469795035735 0 0 0
57 1 -17.20925463966215 -16.924946875504187 -17.867014028378183 0 0 0
93 1 -3.8435076474612093 -14.374689595754058 -18.012600019127103 0 0 0
101 1 -2.952771526736724 -14.068100318020196 -17.42372795951617 0 0 0
91 1 -8.644704150704323 -14.679636661751378 -18.499433414399554 0 0 0
111 1 -1.8848120140165077 -12.823596452951108 -17.508840079499866 0 0 0
32 1 -16.62829719693643 -0.9168026526217935 -0.15437387354008328 0 0 0
11 1 -3.7882884322380077 -12.704907756085843 -16.549178543203535 0 0 0
110 1 -3.957297039349903 -12.486932418271715 -17.627148304285726 0 0 0
1016 2 -1.2544822121714048 -2.071616285748844 -1.9077724720422558 0 0 0
3 1 -15.349804342420756 -7.10012156518093 -18.75274712671165 0 0 0
82 1 -10.785167456043682 -8.827873400668844 -19.919143367191168 0 0 0
17 1 -19.006630765509474 -3.98712708733784 -17.651391342085372 0 0 0
45 1 -18.57998384357689 -4.824591692170797 -18.26506477813445 0 0 0
46 1 -11.672744272250368 -3.264787334850837 -16.259311001655103 0 0 0
95 1 -18.590795729077268 -0.3557490673557186 -18.2886177618743 0 0 0
71 1 -13.933501382604174 -0.8638441157747502 -19.587038638424346 0 0 0
59 1 -3.8096395469477495 -14.560182517818124 -16.8836691056143 0 0 0
12 1 -19.35380729256441 -15.16563255862976 -15.709976342778546 0 0 0
48 1 -6.651451421450678 -14.771379867567566 -16.089561506494476 0 0 0
25 1 -3.9573582222080717 -13.536713843764465 -17.28343959150161 0 0 0
36 1 -3.256295409349745 -13.68487099368638 -16.43647018617738 0 0 0
60 1 -16.02109514291282 -10.100663988532714 -18.933534880708283 0 0 0
113 1 -16.441588163731545 -10.984093087610981 -18.403954483952724 0 0 0
116 1 -15.328695416972863 -10.781483408942329 -18.390733031670095 0 0 0
1014 2 -2.6822781486921383 -11.119230774944606 -17.121660279812968 0 0 0
73 1 -18.973544051113542 -5.028526271966874 -17.23383585078911 0 0 0
63 1 -18.022897804124288 -4.446723576734743 -17.366855486117153 0 0 0
1011 2 -1.2695637062061473 -5.195847819601015 -16.966123071780558 0 0 0
83 1 -11.53878100765562 -4.305698505313992 -15.861358578954052 0 0 0
535 1 -19.218963958260726 -10.290943325114846 -12.479405439793167 1 0 0
104 1 -19.041376162758407 -4.383967841852942 -0.1455080202349366 0 0 0
86 1 -4.148464169989199 -18.90168154135966 -14.200707610558807 0 0 0
34 1 -7.116605614969809 -14.742295491943983 -15.068145184989095 0 0 0
89 1 -2.991575845825112 -12.973953624538797 -17.292482621120353 0 0 0
35 1 -10.193449918679876 -11.825681342908947 -13.630213833798873 0 0 0
50 1 -2.729585432039146 -12.744387601603732 -16.21013335532584 0 0 0
20 1 -18.759991725781703 -10.933653329561958 -13.276945470453095 0 0 0
30 1 -18.14766064704755 -10.136633781145322 -12.777132612923992 0 0 0
52 1 -3.307585972731761 -9.890212617801813 -15.765799936414172 0 0 0
1019 2 -2.6771903669802284 -8.050456148374074 -15.881098614692684 0 0 0
40 1 -12.397763328685224 -3.6757615722828945 -15.507443673341234 0 0 0
21 1 -9.261427679076263 -2.886820634707118 -13.286301967045972 0 0 0
1015 2 -10.831028535408027 -3.0955719986616455 -14.51384795868605 0 0 0
1008 2 -7.971026187223881 -4.339108879681806 -13.548014516955499 0 0 0
28 1 -16.98363984691941 -0.6313291189110436 -13.520641861416195 0 0 0
81 1 -17.004435912969946 -17.31231498097744 -12.091667783369667 0 0 0
74 1 -11.919766791127515 -15.520458480119919 -12.345675375473535 0 0 0
115 1 -5.6384674955897855 -14.469330835719248 -12.848926351899358 0 0 0
7 1 -18.444689260397627 -11.056504235242585 -12.20666167092733 0 0 0
31 1 -15.290296938631613 -10.372649170688463 -12.26586452239462 0 0 0
16 1 -10.223563033867972 -10.801762175257911 -13.171308730397937 0 0 0
47 1 -1.6035909964375155 -10.344610975669527 -11.62662136170997 0 0 0
68 1 -14.36333193417601 -5.998764433833495 -10.738875575927109 0 0 0
107 1 -9.80735921698185 -3.817042109325246 -13.008198577578131 0 0 0
106 1 -17.74568722175128 -0.8065096138268638 -12.718820432874352 0 0 0
54 1 -16.6917505478022 -0.5504013342254234 -12.437602751198876 0 0 0
114 1 -9.979032001592973 -2.043197816748288 -13.14507869939441 0 0 0
29 1 -17.237969512909554 -18.01026954972696 -11.244175779794089 0 0 0
66 1 -16.187404857046594 -17.64626142815242 -11.398189119879824 0 0 0
18 1 -11.604493905622688 -9.586759868365109 -19.946297966982105 0 0 0
595 1 -2.2136867849489636 -13.558227817096684 -16.75167252912354 0 0 0
64 1 -12.292167522208901 -11.88794892650673 -10.410470309775675 0 0 0
5 1 -6.897673731413355 -9.79710746398575 -8.635947984921854 0 0 0
41 1 -7.658470489082831 -9.955129639090982 -7.8288888628086095 0 0 0
4 1 -5.589823959292282 -6.645777287401724 -7.525873955893608 0 0 0
75 1 -13.968791715304352 -5.7821340125550815 -9.710619213152004 0 0 0
1005 2 -5.944281484542799 -5.492861654831934 -9.153827802094908 0 0 0
61 1 -15.10480329707267 -2.4932779444729354 -10.609447820836362 0 0 0
1012 2 -9.809599919415845 -2.7513915569172047 -11.361972403990043 0 0 0
97 1 -15.872059061061083 -1.8215873865560583 -10.140255967479971 0 0 0
6 1 -15.251948529436222 -1.4501585841136675 -10.998690410329248 0 0 0
33 1 -14.778828245340199 -1.6141121558474507 -9.993068015828944 0 0 0
1013 2 -9.173763457284688 -1.2376316687920645 -8.38155030635477 0 0 0
65 1 -14.105159534260741 -19.12482071436364 -7.398918962545695 0 0 0
102 1 -10.15936531167751 -17.471041801046443 -7.928857152124729 0 0 0
10 1 -1.3293241338936255 -18.882666984981167 -8.722737920388477 0 0 0
99 1 -9.221247616047485 -16.855486297503642 -7.898670928953021 0 0 0
117 1 -10.223933589874004 -16.351641063720265 -7.8748708812396115 0 0 0
1 1 -5.138438585637633 -15.74785799754146 -7.00680441084066 0 0 0
49 1 -4.44944046323762 -15.50572120083046 -6.154306775462575 0 0 0
44 1 -18.003296451296748 -11.775397282574847 -8.806181576434252 0 0 0
39 1 -13.547965912289792 -12.340290564966269 -6.82452412224294 0 0 0
78 1 -6.5704996182248205 -10.136436532739092 -7.621586024960435 0 0 0
1002 2 -6.868428356856142 -8.204656277946214 -7.531842758822535 0 0 0
9 1 -16.973760700769926 -5.073309580005911 -6.936026891685345 0 0 0
118 1 -17.594154096065207 -4.20925948187725 -7.2948354922060945 0 0 0
105 1 -9.341432415367816 -2.5446211504473886 -6.966460048707624 0 0 0
1003 2 -2.7917464882096956 -0.883227340357017 -8.803818760814062 0 0 0
109 1 -16.64561660167105 -16.60141807283851 -4.760356291993924 0 0 0
27 1 -5.45437372039219 -15.962707425308814 -5.951282940981916 0 0 0
69 1 -4.645466525116161 -16.57592963985296 -6.43058297680177 0 0 0
94 1 -16.38226151195965 -15.522548044921042 -4.934650747822412 0 0 0
108 1 -13.11642086238183 -13.358518276486178 -6.632394016268504 0 0 0
24 1 -9.97248230598116 -15.473896968120382 -5.436843657685435 0 0 0
79 1 -13.302794709183042 -12.657257058476935 -5.775993245572316 0 0 0
72 1 -9.927163680062417 -8.715257829614847 -4.438405702553664 0 0 0
26 1 -7.282012816966257 -9.946282527500486 -6.77573992057048 0 0 0
76 1 -6.182564280448473 -9.776712802915466 -6.6353499320923675 0 0 0
55 1 -16.592319085662588 -7.812129198535106 -6.512049014632969 0 0 0
43 1 -11.001479026332792 -8.749531461137996 -4.766587353596854 0 0 0
1009 2 -5.868996578979073 -5.542330215024004 -5.861525167699082 0 0 0
1004 2 -2.5912315257242478 -5.221877134041058 -5.163557679564159 0 0 0
1018 2 -3.6893378282511535 -7.315682450722588 -7.5887135702089985 0 0 0
84 1 -9.753758983658786 -2.320239985801526 -5.950588068250235 0 0 0
1007 2 -7.892562934082373 -2.855120550054298 -5.714349501932158 0 0 0
85 1 -18.070029422285156 -17.29471443158609 -3.870662217196268 0 0 0
38 1 -18.834769933292304 -5.484132680857793 -0.10051479497407474 0 0 0
2 1 -11.163954132351591 -13.445121081976096 -2.828012085194929 0 0 0
87 1 -2.9802043394494233 -12.71489738669029 -2.4623702685611173 0 0 0
14 1 -15.750590512744942 -6.4371904988230515 -2.9508746169594695 0 0 0
1006 2 -7.385234372499023 -7.296779833316854 -3.5194444527106987 0 0 0
23 1 -16.512300321030697 -5.6789628145079005 -3.2660638222586575 0 0 0
53 1 -16.387099195890208 -5.922766806551858 -2.179896871429447 0 0 0
1001 2 -4.916903133762557 -5.23586307405011 -2.7239902340047255 0 0 0
1017 2 -4.288703729751874 -8.025076515505333 -4.374521997813905 0 0 0
62 1 -9.121549491150924 -1.5578266267555494 -6.472879660079652 0 0 0
15 1 -13.503732002148155 -18.021757162670998 -0.44236274657284963 0 0 0
92 1 -18.733686086170742 -14.473465701092858 -0.44507397594028214 0 0 0
8 1 -13.381972158207894 -16.906552556659705 -0.47997301104574625 0 0 0
1032 2 -0.18275404310488041 -0.22268291668722437 -19.162133869991433 0 0 1
271 1 -19.80827203709043 -0.17674095809944146 -9.524441845085828 0 0 0
22 1 -18.67610805623117 -13.369276049853132 -0.3663062857333219 0 0 0
19 1 -2.0199575108421497 -10.676350670567876 -0.740948337870933 0 0 0
88 1 -5.60340626200523 -6.518778956221479 -4.1169988492941565 0 0 0
130 1 -15.82374157381 -11.160644971830765 -19.306434397647458 0 0 1
51 1 -15.589265620128602 -5.347995477875898 -2.7246569361911246 0 0 0
58 1 -15.305579432685361 -6.126622268033509 -1.9710807060729305 0 0 0
192 1 -17.985123315998294 -4.762516487517525 -0.2117171046915988 0 0 0
56 1 -11.208826089886994 -10.629693863144071 -19.93671399851018 0 0 0
615 1 -19.472854011896963 -12.640197868863535 -0.21398086292134338 1 0 0
80 1 -0.0978962866883252 -17.076036965212005 -3.064470152660047 0 0 0
238 1 -15.044726080662633 -10.379308520977233 -19.405197865951784 0 0 1
181 1 -16.82555485470009 -10.70348346638304 -19.426313438056273 0 0 1
169 1 -17.741306904055943 -13.94615029031728 -0.22963991431957836 0 0 0
145 1 -11.087574848347355 -19.025848246411837 1.9391742874430353 0 0 0
265 1 -1.9504595836689558 -16.456497564185266 1.0368396039420666 0 0 0
183 1 -15.974752445605342 -10.284445434410014 19.97886628513558 0 0 0
215 1 -2.4156575110621015 -11.11471153897808 2.8314406074848937 0 0 0
170 1 -12.295669342881489 -10.576362101876557 2.4400748040151528 0 0 0
163 1 -11.608251334064157 -10.771441391052758 1.5723266176034167 0 0 0
1031 2 -2.8422904514178535 -10.56186048726281 1.0171060095843918 0 0 0
165 1 -10.595876340094971 -19.69620317441739 16.810230197426684 0 0 0
204 1 -18.546012331425846 -4.8277837516673845 0.7602285839658686 0 0 0
151 1 -9.069749400437665 -0.8936095762064449 3.042945041347237 0 0 0
1036 2 -1.7010656017169632 -4.492754997435058 0.39262065370034394 0 0 0
188 1 -18.21304469606577 -3.831785465997764 0.36918794892445633 0 0 0
135 1 -9.842028124065695 -0.578167122672304 1.0768854160409949 0 0 0
249 1 -17.465845829854068 -1.141420446115372 0.5577905704007886 0 0 0
244 1 -16.436236634644395 -0.9299777284081197 0.9453721110548182 0 0 0
122 1 -9.476390209853156 -0.43737808815502793 2.1208505367856008 0 0 0
740 1 -0.06743651929504614 -13.443556888869123 6.77676557926833 0 0 0
160 1 -17.719888928215898 -18.17321652461459 2.749870802625022 0 0 0
184 1 -18.718351091142818 -14.018821121705797 2.974978006499969 0 0 0
121 1 -17.566652947841327 -10.66452524149072 3.326261224206764 0 0 0
157 1 -12.41566281533124 -11.505272937185259 1.8257634193805512 0 0 0
143 1 -11.53005747802141 -11.397012202055016 2.502989415953 0 0 0
208 1 -3.492469481346758 -10.797873351822622 2.8340406132112697 0 0 0
237 1 -17.902915884466864 -9.840807525847543 4.01061641694794 0 0 0
158 1 -11.206989287980129 -10.324604192804292 2.5178304723338285 0 0 0
242 1 -16.823723608969836 -9.916420606205714 3.711437191482841 0 0 0
214 1 -9.343211853069105 -1.8759461817917524 3.515487529714781 0 0 0
236 1 -15.960066338358448 -1.8875209616640303 1.2659500407298845 0 0 0
261 1 -9.948007679726148 -0.9414904891889889 3.7172188367222647 0 0 0
191 1 -17.06050228632426 -1.7306637765574278 1.4193869336188965 0 0 0
1027 2 -3.063639506644627 -2.2069565434468714 2.4531457623680724 0 0 0
254 1 -12.88545555628236 -19.727057178463728 4.748891415136396 0 0 0
697 1 -19.55056839220607 -13.693483806199563 0.20878996156660098 1 0 0
258 1 -2.178732448698282 -19.660503224419028 5.611602840741278 0 0 0
180 1 -15.787317607231634 -15.890783553010591 6.925417088883681 0 0 0
187 1 -8.871953655387887 -14.215389615426867 6.293879811807157 0 0 0
223 1 -8.086433691426205 -14.262620248561703 5.493474474864561 0 0 0
266 1 -17.26753041245485 -10.676452366262241 4.408095302811631 0 0 0
142 1 -14.752156295032457 -11.432822327159778 6.857631627182218 0 0 0
260 1 -10.524693983851325 -8.531786589199577 6.262795322697052 0 0 0
1023 2 -2.62928963783461 -9.864324431562304 4.304803351781128 0 0 0
248 1 -16.138826215704356 -5.2522073431183625 6.151184209692843 0 0 0
1020 2 -1.083537576739776 -1.4989821568651918 17.855288768506753 0 0 0
1040 2 -10.625676067528978 -1.949475623736268 2.14052162044344 0 0 0
211 1 -16.526228819949758 -19.261127078644478 7.258501684732052 0 0 0
147 1 -8.188387892082217 -15.1034148161487 6.230082162836701 0 0 0
240 1 -0.4174191384576936 -13.398258115424229 7.829143981437076 0 0 0
243 1 -0.5619291596741905 -14.336743991700375 7.215818887680918 0 0 0
125 1 -12.107484881166343 -14.827201375627086 10.1528463141699 0 0 0
196 1 -7.787771463565695 -14.109674818783583 6.564609209178717 0 0 0
129 1 -15.619568701763555 -11.46760071103528 7.56917215008337 0 0 0
247 1 -14.679951628099076 -12.036075177963184 7.801455282277994 0 0 0
396 1 -9.625658458113627 -19.14407027448379 16.781910906883287 0 1 0
226 1 -18.493991511806502 -9.788330886559516 8.762756379299638 0 0 0
174 1 -17.77022596262102 -1.348601446478972 7.189387712795799 0 0 0
1029 2 -1.732007218375476 -2.7760267701529755 8.732363205283644 0 0 0
264 1 -14.656694133737437 -17.205413278869166 9.534424974150676 0 0 0
139 1 -4.6855980034355555 -18.829234587322013 10.646718728942828 0 0 0
513 1 -18.17412029712552 -0.3866768378471299 7.603502991140511 0 0 0
123 1 -15.730397520133954 -17.041603292340604 9.250071281590898 0 0 0
185 1 -15.163933191878954 -16.23820209381104 9.79247594018538 0 0 0
182 1 -11.709713244409219 -16.85109699497706 10.947606806721094 0 0 0
153 1 -11.908193057508635 -15.883852593870957 10.446856513815174 0 0 0
178 1 -11.04833795344244 -15.962618089363234 11.147993763700455 0 0 0
195 1 -1.3134958552765734 -14.042566524001886 7.986662450622487 0 0 0
232 1 -3.64835434363482 -10.755750309105082 10.692127721656753 0 0 0
138 1 -0.2990638696033992 -14.401377452326932 8.304773183095346 0 0 0
198 1 -6.851370126122933 -12.001957122061127 9.942279097032165 0 0 0
150 1 -14.68424517452492 -10.914715420133621 7.851083390927587 0 0 0
175 1 -3.249138143809238 -9.898933814382152 11.283207764979313 0 0 0
245 1 -14.008436635871178 -7.76100156024261 9.260460886869733 0 0 0
202 1 -9.542875743819025 -6.308710968810486 10.671836445263734 0 0 0
262 1 -8.06951610513642 -7.040069350791969 10.293906827090682 0 0 0
203 1 -18.594802355200404 -5.730958526784052 10.969119410483373 0 0 0
207 1 -17.607143415515228 -5.333004173302406 11.324282378465847 0 0 0
228 1 -10.083886509738779 -5.820667711013996 11.517639192379923 0 0 0
141 1 -8.455507936634875 -6.110299381166224 10.76792768290341 0 0 0
263 1 -9.068943315504072 -6.2411630975902455 11.698826686777045 0 0 0
190 1 -9.181048966082079 -5.323387790535276 11.074460574657657 0 0 0
1041 2 -3.4697512860153292 -5.289369036301322 10.15605068238007 0 0 0
239 1 -18.032332623973385 -1.2724837540898226 8.278160988034928 0 0 0
131 1 -11.641823287946643 -2.106428355635417 9.477966485970786 0 0 0
201 1 -15.522832940653384 -18.654265287746647 13.147560777009593 0 0 0
194 1 -12.358127229589707 -17.033510435720828 11.833890187257362 0 0 0
155 1 -10.628615235133925 -16.9970381418837 11.168957863165636 0 0 0
159 1 -8.21582593560235 -19.726521723016937 13.186856001584019 0 0 0
1024 2 -8.294752498180708 -1.1293339692537157 4.897483704617225 0 0 0
171 1 -15.200529563606965 -17.62601632905546 12.832936008845692 0 0 0
229 1 -11.314376150698685 -16.654430452193605 11.983478282499672 0 0 0
154 1 -2.341927167393802 -16.841123788259193 13.037586291527152 0 0 0
250 1 -2.363562474605065 -15.832544116053972 12.545418075975778 0 0 0
199 1 -1.3812660512524888 -16.33299398635725 12.756892220432594 0 0 0
218 1 -12.73809983087808 -15.3216796364882 10.93783973466897 0 0 0
128 1 -11.671590306754391 -15.040278000227055 11.157890092811956 0 0 0
251 1 -12.094624851982847 -15.989686932050233 11.549876358481345 0 0 0
216 1 -19.44139417875903 -11.461737940620116 12.562313233952201 0 0 0
256 1 -19.2258481833479 -10.465006209668386 13.043711993610803 0 0 0
213 1 -3.484043333192619 -10.860458044054287 11.801384540952625 0 0 0
149 1 -4.326206263828104 -10.239109777041515 11.4101969375009 0 0 0
217 1 -3.737372460233255 -9.87886040184411 12.289930275197044 0 0 0
252 1 -18.171132670050792 -6.074768386316903 11.95007270319796 0 0 0
227 1 -8.88576996266372 -7.12264471103869 11.047756699019086 0 0 0
1035 2 -4.346114220785503 -8.334649682567283 11.245768997936196 0 0 0
162 1 -17.693953479610684 -6.400316611643387 10.987676859003892 0 0 0
1025 2 -7.279986541170395 -6.825449402981046 12.083935567590377 0 0 0
164 1 -15.6065841199692 -3.283007927556663 13.122281785874772 0 0 0
134 1 -11.472190426543806 -2.489162540449788 15.466803390820843 0 0 0
1037 2 -1.0454098862705854 -3.7503023079599327 11.892706515181827 0 0 0
212 1 -15.029471562427332 -2.4647025249305496 13.630283310276301 0 0 0
70 1 -18.549948017918165 -14.048298192676306 0.5479768397688068 0 0 0
179 1 -2.001360669464463 -15.933221316237661 13.60300111915316 0 0 0
148 1 -19.06521139204376 -11.41930109202375 13.608561653040356 0 0 0
144 1 -12.866374045796194 -10.980702286744389 15.403547145842467 0 0 0
209 1 -19.49473399730756 -10.542086218188258 14.149465709817676 0 0 0
146 1 -11.972685344016096 -10.3710988503219 15.104172456686271 0 0 0
152 1 -15.371481991474734 -7.728999402825083 13.689013249914348 0 0 0
136 1 -10.181828369537547 -6.118033765173054 14.848881677167668 0 0 0
234 1 -9.453239604810157 -5.512748287321943 14.246164476404376 0 0 0
1042 2 -5.365417368271726 -8.340594814228929 14.415660374126201 0 0 0
1021 2 -0.9078234982440203 -8.179734481432215 15.140467976676055 0 0 0
1033 2 -1.2557523086185385 -7.120779093990435 11.931700077696858 0 0 0
231 1 -15.463371893362272 -3.3042759516672993 14.235506266936332 0 0 0
246 1 -10.369030627493677 -2.3859890817555103 15.568456862469157 0 0 0
127 1 -10.385080062185558 -18.927481161206956 17.592293855578596 0 0 0
462 1 -14.042695924642217 -1.3344446986835532 15.758455325266775 0 0 0
120 1 -9.290259117783801 -18.93345644640668 17.83012739498623 0 0 0
172 1 -1.4638014483245811 -19.926356893499488 16.915722775283903 0 0 0
176 1 -16.242163737030484 -15.99403159779394 16.052317829689915 0 0 0
220 1 -12.77766765609288 -15.984691704181024 15.605102003641804 0 0 0
222 1 -4.826591579475183 -15.562589864534838 16.349045025308108 0 0 0
257 1 -16.85721704805152 -15.328471394220031 16.71471622739532 0 0 0
186 1 -8.63149407017418 -14.870480687710694 17.751489324683668 0 0 0
200 1 -4.766133784443752 -14.608550437311287 16.937337399128282 0 0 0
221 1 -4.107704294552683 -15.476766612304374 17.206786900198995 0 0 0
137 1 -19.308075027340717 -11.965741809129986 16.053524422617677 0 0 0
156 1 -4.813513033314558 -9.687838262375438 15.70048051348598 0 0 0
193 1 -5.930000061285687 -9.603129781145654 15.781364180715 0 0 0
267 1 -5.271670459981238 -8.850490535925866 16.291163696279245 0 0 0
167 1 -1.486263076731308 -9.15293191163377 16.72369420913601 0 0 0
233 1 -0.5751184098116202 -9.680065483844876 16.334289393433874 0 0 0
210 1 -19.22391302677552 -7.527937466989684 16.74696001439437 0 0 0
168 1 -18.970744160379475 -6.564754562510555 17.275342240343914 0 0 0
124 1 -18.229274535099908 -7.046798311843472 16.59369710947331 0 0 0
230 1 -10.988200953251644 -2.8089874400617494 16.412918752654587 0 0 0
1039 2 -10.590950409214198 -4.252745248471983 15.214635892484225 0 0 0
103 1 -16.651705383961744 -1.892217656198891 0.38913179724258357 0 0 0
219 1 -14.334200968668831 -1.668521168358621 16.788890956677236 0 0 0
224 1 -13.535992523862731 -0.8910047618383163 16.657061312742496 0 0 0
253 1 -10.375515685042986 -1.890411010962349 16.564451396487232 0 0 0
189 1 -9.874929109016906 -2.8932314318299355 16.434339424502948 0 0 0
1022 2 -8.64498083157435 -1.5642299631817849 15.748484464948923 0 0 0
126 1 -9.727833984831829 -18.114004828175748 17.200795503089278 0 0 0
161 1 -5.2117841832199145 -15.527591561953189 17.402790090170857 0 0 0
1034 2 -3.7221140857322332 -2.515158897726671 19.684195080959004 0 0 0
173 1 -16.362288178870433 -11.298400348383597 19.73528783591432 0 0 0
100 1 -8.77321689445297 -0.31149529992914976 1.2695899822151724 0 0 0
1030 2 -8.633070216536101 -0.0824706993509467 18.7502391974324 0 0 0
447 1 -9.816562061029824 -19.892882552847006 17.59315788356919 0 1 0
241 1 -15.249368169831229 -11.095817253096481 19.748484119179114 0 0 0
166 1 -11.541981466005998 -10.163260451136253 19.09893916377918 0 0 0
177 1 -10.59882581207602 -9.817562426597714 19.59950277930403 0 0 0
206 1 -19.55438033120459 -7.352532159138516 17.81042213380835 0 0 0
132 1 -18.47666499353482 -7.526074855566156 17.577375575241362 0 0 0
133 1 -11.274139386460405 -9.07966523151997 19.102573424955352 0 0 0
225 1 -11.84205253479887 -8.511140869494621 19.877834674355103 0 0 0
1028 2 -0.8128156675922246 -4.201532250674489 19.848054485605214 0 0 0
119 1 -13.33204902090924 -1.9561958625970024 16.367494519287895 0 0 0
1026 2 -10.5180831286553 -2.8065537410645165 18.265049168709147 0 0 0
439 1 -10.490795968991913 -0.054358755087831896 1.8150203061318941 0 0 0
371 1 -14.913429363623802 12.689396867774406 -0.5555923382109057 0 0 0
326 1 -19.227696847709428 11.911523400892259 -8.014534438008914 0 0 0
308 1 -8.087617998914991 12.701862552809805 -19.076747126770712 0 0 0
280 1 -17.32881497480624 16.116719407993898 -19.519782121194563 0 0 0
329 1 -8.751363103986609 13.601170874458237 -18.974638744091738 0 0 0
382 1 -15.122139599081809 13.76118814701964 -0.8157753925806831 0 0 0
273 1 -16.820177339394334 17.110557489967047 -19.42921982769695 0 0 0
309 1 -12.0519758387742 10.052610509047687 -1.0118357289419377 0 0 0
354 1 -17.875294397745144 16.981517830455743 -19.063545418623352 0 0 0
376 1 -17.573015128900156 17.9249705064929 -19.58619685733085 0 0 0
357 1 -8.371566499936733 19.7231179239287 -19.047544032140035 0 0 0
361 1 -5.057094444785408 18.085827866290334 -0.3387723230255866 0 0 0
381 1 -18.749980497684135 0.7544008755296479 -18.238604295177442 0 0 0
277 1 -8.46858065733139 10.077037946774682 -15.73637043198292 0 0 0
333 1 -8.193488971653753 13.211259449396787 -18.08188289176645 0 0 0
377 1 -7.4119714576814975 10.37372180015512 -15.503202380191194 0 0 0
374 1 -6.409487636724915 14.40871354862526 -16.61410194971881 0 0 0
279 1 -11.650571564264691 13.370579015635826 -17.05502496318048 0 0 0
373 1 -12.659016954777643 13.44951503583252 -16.568343582363433 0 0 0
323 1 -6.71773166620886 15.486320977249747 -16.56826165253063 0 0 0
330 1 -5.632165910888541 15.208914996707854 -16.55715488790411 0 0 0
353 1 -2.6473798280015544 15.769143928036101 -16.412200958870955 0 0 0
270 1 -11.865463599989946 17.328633483696596 -16.061072523935294 0 0 0
389 1 -6.288255559767515 14.98321306901142 -15.663876454165491 0 0 0
322 1 -2.4700419595555747 17.239897484227185 -17.18734281396564 0 0 0
319 1 -16.277211101578537 0.17137380711011233 -13.187531749699586 0 0 0
338 1 -12.561149639279316 3.988491165952075 -15.240717536047269 0 0 0
296 1 -19.73679027187287 6.769601863978425 -13.192574488925922 0 0 0
347 1 -16.473300482129048 6.1882393607764135 -13.8520256856006 0 0 0
367 1 -7.771344524762804 9.347181553601112 -15.250107099676988 0 0 0
364 1 -8.84254331701783 9.400672281942741 -14.926187587293327 0 0 0
307 1 -8.150320515958642 10.245170399355738 -14.675375636997176 0 0 0
362 1 -9.446699422055234 15.562845462376444 -1.0536850423490571 0 0 0
289 1 -5.233889358995435 15.322748183375534 -15.5200517250891 0 0 0
378 1 -17.641859199785905 16.188596345452126 -13.464320571771387 0 0 0
281 1 -6.005560572018485 16.04021803561008 -15.905195850702906 0 0 0
349 1 -14.747533492045626 19.249820410924 -14.727643047950478 0 0 0
360 1 -14.4844066950812 18.69621624422073 -13.787241902631846 0 0 0
351 1 -13.677967256683674 19.03408765184814 -14.486016297508348 0 0 0
363 1 -8.24609300712951 14.243879877288277 -1.1221753498862976 0 0 0
302 1 -17.35832164047376 0.2282951756366809 -12.901019792324592 0 0 0
287 1 -12.55270822429794 1.4867277995053578 -12.199092291847005 0 0 0
1047 2 -7.4591540345189715 0.8420654977663948 -10.450408433711516 0 0 0
1051 2 -5.451613190353794 0.42862689929905684 -13.13975190744884 0 0 0
1045 2 -2.488857740273433 3.134326492274266 -11.272421140455684 0 0 0
343 1 -8.02867028874947 9.258333799236375 -14.167116801808028 0 0 0
285 1 -16.417504857485017 10.0366307465143 -12.903526836271082 0 0 0
379 1 -2.0832689260406507 9.826724976531413 -11.119314539885728 0 0 0
369 1 -16.98699379604642 11.003248029476355 -12.940025652239065 0 0 0
340 1 -5.869293310033182 13.146290998768745 -11.909202172046454 0 0 0
359 1 -17.823685907611676 13.369613845034745 -9.949006280945813 0 0 0
293 1 -9.053355166243998 15.129152136752902 -9.936733995078798 0 0 0
274 1 -18.62758801885721 17.39675239464869 -11.467515710201589 0 0 0
320 1 -13.525343859645782 19.11384096673575 -13.381966298321382 0 0 0
384 1 -13.186970253734602 19.945786577868905 -14.058938252226591 0 0 0
295 1 -19.54493445013053 0.892415918491038 -9.318975501198432 0 0 0
303 1 -17.864333670115197 6.708709911271287 -9.196378017694258 0 0 0
386 1 -7.608282433260849 9.131964439981921 -9.48028605701776 0 0 0
1048 2 -0.5950328124243878 8.935961981713918 -10.241954418511634 0 0 0
318 1 -18.84558714244471 13.008908453142785 -9.671603209910304 0 0 0
300 1 -7.425537546594854 8.679825370050429 -8.471570880099865 0 0 0
327 1 -6.7953407702329915 9.533551905335436 -8.819484644164767 0 0 0
317 1 -18.47127923962339 13.971767734665502 -9.255468626283164 0 0 0
387 1 -17.763730162697787 14.484869728876127 -9.93794845146434 0 0 0
272 1 -16.836002135890002 14.800333491158375 -9.403799470152533 0 0 0
368 1 -16.830475250994095 13.874930720211937 -10.0416017893119 0 0 0
372 1 -17.371583544258296 13.884935807813928 -9.066438330875553 0 0 0
350 1 -8.442878342160714 14.218009670121633 -9.701018521265938 0 0 0
356 1 -9.197423698586867 14.59476666559014 -8.968437906750964 0 0 0
301 1 -8.252328962899465 15.182953016303049 -9.16089305876211 0 0 0
388 1 -2.9218894412656105 14.882765501000456 -8.422596824782097 0 0 0
325 1 -9.364926151205259 18.572097666193727 -10.721078026895 0 0 0
286 1 -15.423371920941857 17.733112891425414 -8.921983612267757 0 0 0
383 1 -9.398250892567619 19.667907542368983 -10.496432491295778 0 0 0
337 1 -12.725047073012902 1.670544599249307 -7.240172522696645 0 0 0
1053 2 -4.354635354163188 4.281892603415903 -8.714840573971415 0 0 0
305 1 -14.118961672400825 6.423037212940325 -7.26106244196418 0 0 0
288 1 -8.22239257277646 9.019062273021175 -7.76647167161211 0 0 0
284 1 -19.35305980731577 10.934890217881547 -7.478860612189209 0 0 0
348 1 -19.2661701997016 11.892833147811219 -6.896678781152378 0 0 0
291 1 -7.865841170203171 9.718274124789316 -8.560874675366504 0 0 0
283 1 -8.473585772066464 8.819964004381818 -8.841815297914588 0 0 0
67 1 -14.27154013596451 19.78864333347387 -13.879301325601634 0 -1 0
276 1 -18.02605514616498 12.993947672159436 -8.91392578759122 0 0 0
298 1 -18.09032250099722 13.865316069708548 -8.215037512031461 0 0 0
297 1 -8.678669644282158 15.120860845314136 -8.134842732724936 0 0 0
358 1 -9.111377214460052 14.098340899522643 -7.973647372368929 0 0 0
346 1 -8.20224613845915 14.2148786901684 -8.61225689020488 0 0 0
370 1 -3.7396460542413053 15.449021843245138 -7.902453645746685 0 0 0
310 1 -13.132363412227534 3.7019957549197215 -4.695352187525676 0 0 0
292 1 -13.370190390490514 7.129626558090811 -6.813837635329507 0 0 0
787 1 -19.911417272946426 13.546938021590446 -12.469737321040038 1 0 0
335 1 -9.711844392983041 9.789123399510524 -4.596484928819205 0 0 0
365 1 -9.069463356077144 8.986791877713792 -5.047935270491132 0 0 0
332 1 -18.8719382035778 10.937305421207082 -6.471717449872907 0 0 0
344 1 -7.3483117380497145 12.599488067416635 -6.5021081485429395 0 0 0
352 1 -6.9339566076778025 11.918848315772593 -5.70988513708083 0 0 0
275 1 -8.127731034523272 14.375338997319762 -7.511077010429737 0 0 0
311 1 -3.384755710085529 14.468175062103171 -7.487829134359201 0 0 0
336 1 -18.005236420998337 19.79686289789788 -6.520086931133844 0 0 0
380 1 -17.589780147444024 2.156143385621534 -2.402077791265651 0 0 0
1049 2 -4.676689236102147 0.2564891214620964 -3.765769881403716 0 0 0
339 1 -18.417993191952895 2.791451294148496 -2.814772235440403 0 0 0
304 1 -17.35503566955099 3.1473392050859714 -2.873718158567576 0 0 0
278 1 -12.073943119440228 3.625147478981676 -4.329612895387033 0 0 0
1046 2 -7.537540773994095 1.852446096490047 -2.9306509503526197 0 0 0
331 1 -13.837257517836402 7.385755010871155 -3.087840116076862 0 0 0
345 1 -6.025352139802252 8.687697879659252 -3.368229229351857 0 0 0
342 1 -11.549489344086325 9.630280739886045 -1.9224830909284687 0 0 0
334 1 -2.099475826482571 14.333414343512898 -2.302022430437381 0 0 0
316 1 -19.49954278491635 16.44565041877443 -3.6152035805184477 0 0 0
299 1 -16.797829157230407 17.365019606411135 -3.4744887038078556 0 0 0
341 1 -2.363687494799816 18.923966766602483 -3.5165181254042674 0 0 0
313 1 -1.8907715263694194 18.991062361448282 -4.532253716365046 0 0 0
314 1 -1.4065479151890516 19.494207277476274 -3.6533947423325794 0 0 0
366 1 -9.194961683963404 14.608459892758763 -1.5838879832721489 0 0 0
1052 2 -9.416732831015267 0.4687635200487422 -0.43937404259864 0 0 0
312 1 -17.879490414202767 3.107784886747096 -1.8821108964518847 0 0 0
375 1 -9.03430332777633 14.6978841502427 -0.47278096798419883 0 0 0
1043 2 -1.4465562713717648 3.2720324962062683 -1.3759728424480728 0 0 0